 Entering Gaussian System, Link 0=/opt/g16/g16
 Initial command:
 /opt/g16/l1.exe "/scratch/yanfeig/Gau-34440.inp" -scrdir="/scratch/yanfeig/"
 Entering Link 1 = /opt/g16/l1.exe PID=     34442.
  
 Copyright (c) 1988-2017, Gaussian, Inc.  All Rights Reserved.
  
 This is part of the Gaussian(R) 16 program.  It is based on
 the Gaussian(R) 09 system (copyright 2009, Gaussian, Inc.),
 the Gaussian(R) 03 system (copyright 2003, Gaussian, Inc.),
 the Gaussian(R) 98 system (copyright 1998, Gaussian, Inc.),
 the Gaussian(R) 94 system (copyright 1995, Gaussian, Inc.),
 the Gaussian 92(TM) system (copyright 1992, Gaussian, Inc.),
 the Gaussian 90(TM) system (copyright 1990, Gaussian, Inc.),
 the Gaussian 88(TM) system (copyright 1988, Gaussian, Inc.),
 the Gaussian 86(TM) system (copyright 1986, Carnegie Mellon
 University), and the Gaussian 82(TM) system (copyright 1983,
 Carnegie Mellon University). Gaussian is a federally registered
 trademark of Gaussian, Inc.
  
 This software contains proprietary and confidential information,
 including trade secrets, belonging to Gaussian, Inc.
  
 This software is provided under written license and may be
 used, copied, transmitted, or stored only in accord with that
 written license.
  
 The following legend is applicable only to US Government
 contracts under FAR:
  
                    RESTRICTED RIGHTS LEGEND
  
 Use, reproduction and disclosure by the US Government is
 subject to restrictions as set forth in subparagraphs (a)
 and (c) of the Commercial Computer Software - Restricted
 Rights clause in FAR 52.227-19.
  
 Gaussian, Inc.
 340 Quinnipiac St., Bldg. 40, Wallingford CT 06492
  
  
 ---------------------------------------------------------------
 Warning -- This program may not be used in any manner that
 competes with the business of Gaussian, Inc. or will provide
 assistance to any competitor of Gaussian, Inc.  The licensee
 of this program is prohibited from giving any competitor of
 Gaussian, Inc. access to this program.  By using this program,
 the user acknowledges that Gaussian, Inc. is engaged in the
 business of creating and licensing software in the field of
 computational chemistry and represents and warrants to the
 licensee that it is not a competitor of Gaussian, Inc. and that
 it will not use this program in any manner prohibited above.
 ---------------------------------------------------------------
  

 Cite this work as:
 Gaussian 16, Revision B.01,
 M. J. Frisch, G. W. Trucks, H. B. Schlegel, G. E. Scuseria, 
 M. A. Robb, J. R. Cheeseman, G. Scalmani, V. Barone, 
 G. A. Petersson, H. Nakatsuji, X. Li, M. Caricato, A. V. Marenich, 
 J. Bloino, B. G. Janesko, R. Gomperts, B. Mennucci, H. P. Hratchian, 
 J. V. Ortiz, A. F. Izmaylov, J. L. Sonnenberg, D. Williams-Young, 
 F. Ding, F. Lipparini, F. Egidi, J. Goings, B. Peng, A. Petrone, 
 T. Henderson, D. Ranasinghe, V. G. Zakrzewski, J. Gao, N. Rega, 
 G. Zheng, W. Liang, M. Hada, M. Ehara, K. Toyota, R. Fukuda, 
 J. Hasegawa, M. Ishida, T. Nakajima, Y. Honda, O. Kitao, H. Nakai, 
 T. Vreven, K. Throssell, J. A. Montgomery, Jr., J. E. Peralta, 
 F. Ogliaro, M. J. Bearpark, J. J. Heyd, E. N. Brothers, K. N. Kudin, 
 V. N. Staroverov, T. A. Keith, R. Kobayashi, J. Normand, 
 K. Raghavachari, A. P. Rendell, J. C. Burant, S. S. Iyengar, 
 J. Tomasi, M. Cossi, J. M. Millam, M. Klene, C. Adamo, R. Cammi, 
 J. W. Ochterski, R. L. Martin, K. Morokuma, O. Farkas, 
 J. B. Foresman, and D. J. Fox, Gaussian, Inc., Wallingford CT, 2016.
 
 ******************************************
 Gaussian 16:  EM64L-G16RevB.01 20-Dec-2017
                 3-Feb-2020 
 ******************************************
 %chk=CHEMBL231079_opt.chk
 %nprocshared=20
 Will use up to   20 processors via shared memory.
 ----------------------------------------------------------------------
 # b3lyp/def2svp scf=(maxcycle=512, xqc) pop=(full,mbs,hirshfeld,nbo6re
 ad)
 ----------------------------------------------------------------------
 1/38=1,163=2,172=1/1;
 2/12=2,17=6,18=5,40=1/2;
 3/5=43,7=101,11=2,25=1,30=1,74=-5/1,2,3;
 4//1;
 5/5=2,7=512,8=3,13=1,38=5/2,8;
 6/7=3,27=100,28=1,40=2,79=1,113=1,114=1,124=2103/1,12;
 99/5=1,9=1/99;
 ----
 None
 ----
 Symbolic Z-matrix:
 Charge = -1 Multiplicity = 2
 C                     0.        0.        0. 
 H                    -0.64458  -0.76718  -0.40871 
 H                    -0.34609   0.97258  -0.32466 
 H                    -0.0221   -0.04843   1.08086 
 H                     1.01277  -0.15697  -0.34748 
 
                          Input orientation:                          
 ---------------------------------------------------------------------
 Center     Atomic      Atomic             Coordinates (Angstroms)
 Number     Number       Type             X           Y           Z
 ---------------------------------------------------------------------
      1          6           0        0.000000    0.000000    0.000000
      2          1           0       -0.644580   -0.767180   -0.408710
      3          1           0       -0.346090    0.972580   -0.324660
      4          1           0       -0.022100   -0.048430    1.080860
      5          1           0        1.012770   -0.156970   -0.347480
 ---------------------------------------------------------------------
                    Distance matrix (angstroms):
                    1          2          3          4          5
     1  C    0.000000
     2  H    1.082170   0.000000
     3  H    1.082171   1.767180   0.000000
     4  H    1.082170   1.767173   1.767178   0.000000
     5  H    1.082167   1.767177   1.767174   1.767171   0.000000
 Stoichiometry    CH4(1-,2)
 Framework group  C1[X(CH4)]
 Deg. of freedom     9
 Full point group                 C1      NOp   1
 Largest Abelian subgroup         C1      NOp   1
 Largest concise Abelian subgroup C1      NOp   1
                         Standard orientation:                         
 ---------------------------------------------------------------------
 Center     Atomic      Atomic             Coordinates (Angstroms)
 Number     Number       Type             X           Y           Z
 ---------------------------------------------------------------------
      1          6           0        0.000000    0.000001   -0.000001
      2          1           0       -0.771611    0.696994   -0.299849
      3          1           0        0.894873    0.546096    0.268471
      4          1           0       -0.342423   -0.572591    0.852042
      5          1           0        0.219159   -0.670502   -0.820659
 ---------------------------------------------------------------------
 Rotational constants (GHZ):         160.5735988         160.5730831         160.5725081
 Standard basis: def2SVP (5D, 7F)
 There are    35 symmetry adapted cartesian basis functions of A   symmetry.
 There are    34 symmetry adapted basis functions of A   symmetry.
    34 basis functions,    53 primitive gaussians,    35 cartesian basis functions
     6 alpha electrons        5 beta electrons
       nuclear repulsion energy        13.5326059409 Hartrees.
 NAtoms=    5 NActive=    5 NUniq=    5 SFac= 1.00D+00 NAtFMM=   60 NAOKFM=F Big=F
 Integral buffers will be    131072 words long.
 Raffenetti 2 integral format.
 Two-electron integral symmetry is turned on.
 One-electron integrals computed using PRISM.
   1 Symmetry operations used in ECPInt.
 ECPInt:  NShTT=     171 NPrTT=     553 LenC2=     172 LenP2D=     539.
 LDataN:  DoStor=T MaxTD1= 4 Len=   56
 NBasis=    34 RedAO= T EigKep=  1.36D-02  NBF=    34
 NBsUse=    34 1.00D-06 EigRej= -1.00D+00 NBFU=    34
 ExpMin= 1.22D-01 ExpMax= 1.24D+03 ExpMxC= 1.86D+02 IAcc=3 IRadAn=         5 AccDes= 0.00D+00
 Harris functional with IExCor=  402 and IRadAn=       5 diagonalized for initial guess.
 HarFok:  IExCor=  402 AccDes= 0.00D+00 IRadAn=         5 IDoV= 1 UseB2=F ITyADJ=14
 ICtDFT=  3500011 ScaDFX=  1.000000  1.000000  1.000000  1.000000
 FoFCou: FMM=F IPFlag=           0 FMFlag=      100000 FMFlg1=           0
         NFxFlg=           0 DoJE=T BraDBF=F KetDBF=T FulRan=T
         wScrn=  0.000000 ICntrl=       500 IOpCl=  0 I1Cent=   200000004 NGrid=           0
         NMat0=    1 NMatS0=      1 NMatT0=    0 NMatD0=    1 NMtDS0=    0 NMtDT0=    0
 Petite list used in FoFCou.
 Initial guess <Sx>= 0.0000 <Sy>= 0.0000 <Sz>= 0.5000 <S**2>= 0.7500 S= 0.5000
 Keep R1 and R2 ints in memory in canonical form, NReq=17635263.
 Requested convergence on RMS density matrix=1.00D-08 within 128 cycles.
 Requested convergence on MAX density matrix=1.00D-06.
 Requested convergence on             energy=1.00D-06.
 No special actions if energy rises.
 Integral accuracy reduced to 1.0D-05 until final iterations.
 Initial convergence to 1.0D-05 achieved.  Increase integral accuracy.
 SCF Done:  E(UB3LYP) =  -40.3414801285     A.U. after   12 cycles
            NFock= 12  Conv=0.14D-08     -V/T= 2.0009
 <Sx>= 0.0000 <Sy>= 0.0000 <Sz>= 0.5000 <S**2>= 0.7507 S= 0.5003
 <L.S>= 0.000000000000E+00
 Annihilation of the first spin contaminant:
 S**2 before annihilation     0.7507,   after     0.7500
 QCSCF skips out because SCF is already converged.

 **********************************************************************

            Population analysis using the SCF Density.

 **********************************************************************

 Orbital symmetries:
 Alpha Orbitals:
       Occupied  (A) (A) (A) (A) (A) (A)
       Virtual   (A) (A) (A) (A) (A) (A) (A) (A) (A) (A) (A) (A)
                 (A) (A) (A) (A) (A) (A) (A) (A) (A) (A) (A) (A)
                 (A) (A) (A) (A)
 Beta  Orbitals:
       Occupied  (A) (A) (A) (A) (A)
       Virtual   (A) (A) (A) (A) (A) (A) (A) (A) (A) (A) (A) (A)
                 (A) (A) (A) (A) (A) (A) (A) (A) (A) (A) (A) (A)
                 (A) (A) (A) (A) (A)
 The electronic state is 2-A.
 Alpha  occ. eigenvalues --   -9.91105  -0.44792  -0.15169  -0.15169  -0.15169
 Alpha  occ. eigenvalues --    0.21889
 Alpha virt. eigenvalues --    0.33687   0.33687   0.33687   0.64341   0.64341
 Alpha virt. eigenvalues --    0.64341   0.87756   0.90986   0.90986   0.90987
 Alpha virt. eigenvalues --    1.01941   1.33834   1.33834   1.78563   1.78563
 Alpha virt. eigenvalues --    1.78563   2.01132   2.01132   2.01132   2.38823
 Alpha virt. eigenvalues --    2.38823   2.38823   2.78665   2.78665   2.87047
 Alpha virt. eigenvalues --    3.16607   3.16607   3.16607
  Beta  occ. eigenvalues --   -9.90458  -0.43879  -0.14532  -0.14532  -0.14532
  Beta virt. eigenvalues --    0.28064   0.36143   0.36143   0.36143   0.64777
  Beta virt. eigenvalues --    0.64778   0.64778   0.89162   0.91991   0.91991
  Beta virt. eigenvalues --    0.91992   1.02091   1.34141   1.34142   1.78806
  Beta virt. eigenvalues --    1.78806   1.78806   2.01660   2.01660   2.01660
  Beta virt. eigenvalues --    2.39426   2.39426   2.39426   2.79504   2.79504
  Beta virt. eigenvalues --    2.87904   3.17453   3.17454   3.17454
     Alpha Molecular Orbital Coefficients:
                           1         2         3         4         5
                           O         O         O         O         O
     Eigenvalues --    -9.91105  -0.44792  -0.15169  -0.15169  -0.15169
   1 1   C  1S          0.98775  -0.25129   0.00000  -0.00000   0.00000
   2        2S          0.05246   0.49040  -0.00000   0.00000  -0.00000
   3        3S         -0.04161   0.04796  -0.00000   0.00000  -0.00000
   4        4PX        -0.00000  -0.00000   0.30412   0.30758   0.02660
   5        4PY        -0.00000  -0.00000  -0.26203   0.27690  -0.20609
   6        4PZ        -0.00000  -0.00000  -0.16327   0.12854   0.38030
   7        5PX         0.00000   0.00000   0.10466   0.10585   0.00915
   8        5PY         0.00000   0.00000  -0.09017   0.09529  -0.07092
   9        5PZ        -0.00000  -0.00000  -0.05619   0.04424   0.13087
  10        6D 0       -0.00000   0.00000   0.00628  -0.00938   0.00701
  11        6D+1       -0.00000  -0.00000  -0.00481   0.00808  -0.00718
  12        6D-1        0.00000   0.00000   0.01563   0.00169  -0.01113
  13        6D+2        0.00000  -0.00000  -0.00295   0.00788  -0.00108
  14        6D-2       -0.00000  -0.00000   0.00759   0.01245   0.01214
  15 2   H  1S         -0.00355   0.17891  -0.29490  -0.06635  -0.22273
  16        2S          0.00798   0.05759  -0.19353  -0.04355  -0.14617
  17        3PX        -0.00191   0.01592  -0.00462   0.00644  -0.00985
  18        3PY         0.00173  -0.01438   0.00457   0.01154   0.00320
  19        3PZ        -0.00074   0.00618  -0.01061   0.00279   0.00775
  20 3   H  1S         -0.00355   0.17891   0.06823   0.36907   0.01069
  21        2S          0.00798   0.05759   0.04478   0.24220   0.00702
  22        3PX         0.00222  -0.01846   0.00572  -0.01090   0.00024
  23        3PY         0.00135  -0.01126  -0.01052  -0.00386  -0.00681
  24        3PZ         0.00066  -0.00554  -0.00625  -0.00214   0.01172
  25 4   H  1S         -0.00355   0.17891  -0.07463  -0.12358   0.34661
  26        2S          0.00798   0.05760  -0.04898  -0.08110   0.22747
  27        3PX        -0.00085   0.00706   0.00793   0.00700   0.00821
  28        3PY        -0.00142   0.01181  -0.01086   0.00427   0.00589
  29        3PZ         0.00211  -0.01757  -0.00116   0.01057  -0.00645
  30 5   H  1S         -0.00355   0.17891   0.30130  -0.17914  -0.13457
  31        2S          0.00798   0.05760   0.19773  -0.11756  -0.08831
  32        3PX         0.00054  -0.00452   0.00541   0.01207   0.00267
  33        3PY        -0.00166   0.01383   0.00436   0.00120  -0.01206
  34        3PZ        -0.00203   0.01693   0.01026  -0.00511   0.00504
                           6         7         8         9        10
                           O         V         V         V         V
     Eigenvalues --     0.21889   0.33687   0.33687   0.33687   0.64341
   1 1   C  1S         -0.13818   0.00000  -0.00000   0.00000  -0.00000
   2        2S          0.14036  -0.00000   0.00000   0.00000   0.00001
   3        3S          3.19767   0.00001  -0.00001  -0.00001  -0.00002
   4        4PX        -0.00000  -0.34171  -0.01821  -0.09900  -0.02586
   5        4PY         0.00000  -0.05683   0.32407   0.13655   0.04943
   6        4PZ         0.00000  -0.08308  -0.14678   0.31377  -0.28374
   7        5PX        -0.00000  -1.23396  -0.06575  -0.35749   0.11718
   8        5PY        -0.00000  -0.20521   1.17026   0.49311  -0.22399
   9        5PZ         0.00000  -0.30002  -0.53003   1.13306   1.28575
  10        6D 0        0.00000   0.00012  -0.00039  -0.00012  -0.01313
  11        6D+1       -0.00000  -0.00010   0.00036   0.00006   0.01651
  12        6D-1        0.00000  -0.00022   0.00009  -0.00057   0.05712
  13        6D+2       -0.00000  -0.00016   0.00018   0.00013  -0.00646
  14        6D-2       -0.00000  -0.00053  -0.00025   0.00016  -0.05584
  15 2   H  1S         -0.01141  -0.01956  -0.02230  -0.00609   0.39409
  16        2S         -1.13816  -1.40069  -1.59740  -0.43589   0.01856
  17        3PX         0.00092  -0.00430  -0.00290  -0.00130  -0.00945
  18        3PY        -0.00083   0.00192   0.00427   0.00142   0.00512
  19        3PZ         0.00036  -0.00140  -0.00188   0.00139   0.03219
  20 3   H  1S         -0.01141   0.02821  -0.00953  -0.00552  -0.20433
  21        2S         -1.13816   2.02041  -0.68229  -0.39504  -0.00962
  22        3PX        -0.00106  -0.00595   0.00129   0.00027  -0.00433
  23        3PY        -0.00065  -0.00282   0.00259   0.00122  -0.01119
  24        3PZ        -0.00032  -0.00168  -0.00037   0.00193   0.03486
  25 4   H  1S         -0.01141  -0.00619   0.02391  -0.01752  -0.73799
  26        2S         -1.13816  -0.44309   1.71247  -1.25489  -0.03476
  27        3PX         0.00041  -0.00218   0.00124  -0.00151   0.01405
  28        3PY         0.00068  -0.00088   0.00397  -0.00090   0.01136
  29        3PZ        -0.00101   0.00041  -0.00411   0.00412   0.01064
  30 5   H  1S         -0.01141  -0.00247   0.00792   0.02912   0.54823
  31        2S         -1.13816  -0.17663   0.56723   2.08584   0.02583
  32        3PX        -0.00026  -0.00175  -0.00038  -0.00157   0.00846
  33        3PY         0.00080  -0.00057   0.00261   0.00392  -0.02199
  34        3PZ         0.00097  -0.00078   0.00027   0.00558   0.01819
                          11        12        13        14        15
                           V         V         V         V         V
     Eigenvalues --     0.64341   0.64341   0.87756   0.90986   0.90986
   1 1   C  1S         -0.00000   0.00000   0.32488   0.00000  -0.00000
   2        2S         -0.00000  -0.00000  -2.07150  -0.00003   0.00002
   3        3S         -0.00001   0.00001   5.19806   0.00008  -0.00006
   4        4PX        -0.04078  -0.28511  -0.00000   0.86266  -0.13997
   5        4PY        -0.28264   0.03594  -0.00002   0.12021  -0.70954
   6        4PZ        -0.04552   0.03225  -0.00002   0.34574   0.59594
   7        5PX         0.18477   1.29198   0.00000  -1.45928   0.23677
   8        5PY         1.28077  -0.16286   0.00003  -0.20335   1.20026
   9        5PZ         0.20629  -0.14612   0.00003  -0.58486  -1.00809
  10        6D 0        0.05545   0.00116  -0.00000   0.02377  -0.08629
  11        6D+1       -0.04791  -0.00300   0.00000  -0.01964   0.08211
  12        6D-1        0.01617  -0.05748  -0.00000  -0.03653   0.07183
  13        6D+2       -0.03453  -0.00952   0.00000  -0.04016   0.03567
  14        6D-2       -0.00667  -0.05885   0.00000  -0.14050  -0.05494
  15 2   H  1S         -0.42912   0.66501   0.23722   0.39294   0.32400
  16        2S         -0.02022   0.03134  -1.24946  -1.22048  -1.00631
  17        3PX         0.01932   0.01570  -0.07312  -0.06144  -0.11410
  18        3PY         0.02441   0.01485   0.06605   0.12253   0.04077
  19        3PZ         0.01140  -0.01264  -0.02842  -0.02309   0.00413
  20 3   H  1S         -0.57371  -0.64094   0.23722  -0.53333   0.20219
  21        2S         -0.02702  -0.03020  -1.24948   1.65649  -0.62798
  22        3PX        -0.01633   0.01315   0.08480  -0.13362   0.06460
  23        3PY         0.02381  -0.01948   0.05175  -0.11182  -0.00709
  24        3PZ        -0.00054  -0.01149   0.02544  -0.03361   0.06692
  25 4   H  1S          0.38710   0.29531   0.23721   0.03992  -0.55140
  26        2S          0.01824   0.01392  -1.24945  -0.12400   1.71264
  27        3PX        -0.00025   0.03309  -0.03245   0.05862   0.06787
  28        3PY         0.02768  -0.01185  -0.05426  -0.00052   0.07805
  29        3PZ         0.01988   0.00640   0.08074   0.03987  -0.15041
  30 5   H  1S          0.61573  -0.31939   0.23720   0.10047   0.02522
  31        2S          0.02902  -0.01506  -1.24940  -0.31208  -0.07831
  32        3PX         0.01104   0.03440   0.02077   0.07342  -0.00814
  33        3PY         0.01961   0.00433  -0.06353  -0.01898  -0.05989
  34        3PZ        -0.01536   0.00684  -0.07776  -0.00843   0.03583
                          16        17        18        19        20
                           V         V         V         V         V
     Eigenvalues --     0.90987   1.01941   1.33834   1.33834   1.78563
   1 1   C  1S         -0.00001   0.03472   0.00000  -0.00000   0.00000
   2        2S          0.00006  -1.04640  -0.00001   0.00001  -0.00000
   3        3S         -0.00018   4.38881   0.00002  -0.00003   0.00000
   4        4PX         0.33823  -0.00000  -0.00000  -0.00000  -0.00000
   5        4PY        -0.60023  -0.00001  -0.00000  -0.00000   0.00000
   6        4PZ        -0.63521  -0.00000  -0.00000   0.00000  -0.00000
   7        5PX        -0.57215  -0.00000   0.00000  -0.00000   0.00001
   8        5PY         1.01536  -0.00000   0.00000   0.00000   0.00000
   9        5PZ         1.07453   0.00001  -0.00000  -0.00000   0.00001
  10        6D 0       -0.05629  -0.00000   0.00147   0.27266  -0.00000
  11        6D+1        0.04173   0.00000  -0.20173   0.21779   0.00000
  12        6D-1       -0.13041  -0.00000   0.02804  -0.00616  -0.00000
  13        6D+2        0.04092   0.00000   0.30836   0.13699   0.00000
  14        6D-2        0.00686   0.00000  -0.06697  -0.02187   0.00000
  15 2   H  1S          0.28022  -0.74652  -0.00000   0.00000   0.00000
  16        2S         -0.87032  -0.65352  -0.00000   0.00000   0.00000
  17        3PX        -0.06446   0.04997  -0.24532  -0.07112  -0.33919
  18        3PY         0.03626  -0.04514  -0.18909  -0.20471  -0.47697
  19        3PZ        -0.08218   0.01942   0.19177  -0.29283  -0.23585
  20 3   H  1S          0.11215  -0.74652  -0.00000   0.00000  -0.00000
  21        2S         -0.34829  -0.65352  -0.00000   0.00000  -0.00000
  22        3PX         0.06682  -0.05795   0.20249   0.03101  -0.28659
  23        3PY        -0.01934  -0.03537  -0.24290  -0.19980   0.52996
  24        3PZ        -0.03485  -0.01738  -0.18086   0.30304  -0.12273
  25 4   H  1S          0.17962  -0.74653  -0.00000   0.00000  -0.00000
  26        2S         -0.55785  -0.65352  -0.00000   0.00001  -0.00000
  27        3PX        -0.00030   0.02218  -0.26218   0.22514   0.25358
  28        3PY        -0.08738   0.03708   0.24576   0.18751   0.07653
  29        3PZ         0.01612  -0.05518   0.05979   0.21649   0.15334
  30 5   H  1S         -0.57199  -0.74653  -0.00000   0.00000   0.00000
  31        2S          1.77661  -0.65351  -0.00000   0.00000   0.00000
  32        3PX        -0.02678  -0.01420   0.30502  -0.18502   0.37220
  33        3PY         0.11431   0.04343   0.18623   0.21699  -0.12953
  34        3PZ         0.14732   0.05315  -0.07070  -0.22670   0.20523
                          21        22        23        24        25
                           V         V         V         V         V
     Eigenvalues --     1.78563   1.78563   2.01132   2.01132   2.01132
   1 1   C  1S          0.00000  -0.00000   0.00000   0.00000   0.00000
   2        2S         -0.00000  -0.00000   0.00000   0.00000  -0.00000
   3        3S          0.00000   0.00000  -0.00001  -0.00002  -0.00000
   4        4PX        -0.00000   0.00000  -0.17919  -0.00374   0.05813
   5        4PY        -0.00000  -0.00000  -0.01136  -0.18217  -0.04674
   6        4PZ         0.00000  -0.00000  -0.05713   0.04796  -0.17302
   7        5PX        -0.00000  -0.00001   0.87371   0.01823  -0.28345
   8        5PY         0.00001   0.00000   0.05541   0.88827   0.22793
   9        5PZ        -0.00000   0.00001   0.27857  -0.23385   0.84365
  10        6D 0       -0.00000  -0.00000  -0.03945  -0.23113  -0.03167
  11        6D+1        0.00000   0.00000   0.03353   0.20798   0.00592
  12        6D-1       -0.00000  -0.00000   0.10943   0.01983  -0.32451
  13        6D+2        0.00000   0.00000   0.07993   0.11617   0.05423
  14        6D-2       -0.00000  -0.00000   0.31196  -0.08831   0.09529
  15 2   H  1S         -0.00000  -0.00000   0.33204  -0.31176  -0.05754
  16        2S         -0.00000  -0.00000   0.12527  -0.11762  -0.02171
  17        3PX         0.19198   0.21180  -0.45316   0.00186   0.14523
  18        3PY         0.03101   0.07588  -0.01733  -0.45874  -0.11698
  19        3PZ        -0.42192  -0.36862  -0.14531   0.12244  -0.42539
  20 3   H  1S         -0.00000   0.00000  -0.40954  -0.20253  -0.04494
  21        2S         -0.00000   0.00000  -0.15451  -0.07641  -0.01695
  22        3PX        -0.14294   0.15490  -0.45824  -0.01756   0.14134
  23        3PY        -0.03282  -0.12801  -0.03829  -0.45382  -0.11628
  24        3PZ         0.54319  -0.25593  -0.14579   0.11563  -0.42674
  25 4   H  1S          0.00000  -0.00000   0.04320   0.32975  -0.31648
  26        2S          0.00000  -0.00000   0.01630   0.12441  -0.11940
  27        3PX        -0.51068  -0.18728  -0.44205  -0.01440   0.14818
  28        3PY        -0.02542   0.53075  -0.02912  -0.45742  -0.10680
  29        3PZ        -0.22231   0.28141  -0.13903   0.13107  -0.43861
  30 5   H  1S          0.00000   0.00000   0.03430   0.18456   0.41895
  31        2S          0.00000   0.00000   0.01294   0.06964   0.15807
  32        3PX         0.46164  -0.17941  -0.44103  -0.00735   0.14742
  33        3PY         0.02721  -0.47862  -0.02905  -0.45442  -0.12807
  34        3PZ         0.10105   0.34313  -0.14202   0.11116  -0.44202
                          26        27        28        29        30
                           V         V         V         V         V
     Eigenvalues --     2.38823   2.38823   2.38823   2.78665   2.78665
   1 1   C  1S         -0.00000  -0.00000  -0.00000  -0.00001   0.00000
   2        2S          0.00001   0.00000   0.00000   0.00004  -0.00003
   3        3S         -0.00001  -0.00000   0.00000   0.00002  -0.00001
   4        4PX         0.24290  -0.13070   0.52207  -0.00000   0.00001
   5        4PY         0.23134   0.54252   0.02819  -0.00000  -0.00000
   6        4PZ        -0.48592   0.19294   0.27439  -0.00001  -0.00000
   7        5PX         0.31892  -0.17161   0.68548  -0.00000   0.00000
   8        5PY         0.30374   0.71232   0.03702   0.00000   0.00000
   9        5PZ        -0.63801   0.25333   0.36027  -0.00000  -0.00000
  10        6D 0        0.15005   0.25333   0.03953   0.82526  -0.00120
  11        6D+1       -0.15687  -0.21119  -0.02843   0.65500  -0.61506
  12        6D-1       -0.35759   0.23072  -0.06637  -0.01808   0.08499
  13        6D+2       -0.05012  -0.15178  -0.10214   0.42099   0.93047
  14        6D-2        0.09535   0.03938  -0.41156  -0.06758  -0.20225
  15 2   H  1S         -0.04142  -0.14595   0.16131  -0.00001   0.00001
  16        2S         -0.12585  -0.44343   0.49010  -0.00001   0.00001
  17        3PX        -0.40012  -0.41138   0.07252   0.09195   0.30933
  18        3PY        -0.09475  -0.05797  -0.57131   0.26026   0.23710
  19        3PZ         0.43182  -0.40654  -0.04419   0.36829  -0.24479
  20 3   H  1S         -0.07390  -0.08009  -0.19277  -0.00001   0.00001
  21        2S         -0.22453  -0.24334  -0.58570  -0.00000   0.00000
  22        3PX         0.07343   0.47828   0.30443  -0.04091  -0.25556
  23        3PY        -0.03930  -0.33791   0.47968   0.25451   0.30513
  24        3PZ         0.58756  -0.09146  -0.02785  -0.38128   0.23111
  25 4   H  1S          0.21821   0.03517  -0.01347  -0.00001   0.00001
  26        2S          0.66300   0.10686  -0.04094  -0.00000   0.00001
  27        3PX         0.11490   0.19042  -0.55063  -0.28216   0.33318
  28        3PY         0.36908  -0.45183  -0.06578  -0.23902  -0.30886
  29        3PZ        -0.40581  -0.33994  -0.22227  -0.27401  -0.07368
  30 5   H  1S         -0.10289   0.19086   0.04494  -0.00001   0.00001
  31        2S         -0.31262   0.57991   0.13653  -0.00001   0.00000
  32        3PX        -0.13696  -0.06966  -0.57590   0.23112  -0.38695
  33        3PY        -0.56718   0.06877   0.11693  -0.27576  -0.23339
  34        3PZ         0.08413   0.56091  -0.09966   0.28700   0.08736
                          31        32        33        34
                           V         V         V         V
     Eigenvalues --     2.87047   3.16607   3.16607   3.16607
   1 1   C  1S         -0.31424  -0.00000   0.00000  -0.00000
   2        2S          2.00068   0.00000  -0.00001   0.00004
   3        3S          1.03736   0.00000  -0.00000   0.00001
   4        4PX        -0.00000   1.13173  -0.13921   0.05714
   5        4PY        -0.00001   0.14918   1.09469  -0.28786
   6        4PZ         0.00001   0.01968  -0.29280  -1.10333
   7        5PX        -0.00000   0.57806  -0.07111   0.02919
   8        5PY        -0.00000   0.07620   0.55914  -0.14703
   9        5PZ         0.00001   0.01005  -0.14956  -0.56356
  10        6D 0       -0.00002  -0.25069  -0.90445   0.16146
  11        6D+1       -0.00002   0.24143   0.81129  -0.05550
  12        6D-1       -0.00001   0.76874  -0.03306   1.14646
  13        6D+2        0.00001   0.31752   0.42790  -0.29308
  14        6D-2        0.00000   1.05105  -0.50716  -0.69873
  15 2   H  1S         -0.60509   0.75719  -0.93598  -0.08413
  16        2S         -0.27635   0.27464  -0.33949  -0.03051
  17        3PX        -0.57348   0.59783  -0.66266  -0.05535
  18        3PY         0.51803  -0.46903   0.65730   0.03567
  19        3PZ        -0.22287   0.20686  -0.27197  -0.08971
  20 3   H  1S         -0.60509  -1.07400  -0.38546   0.39294
  21        2S         -0.27635  -0.38956  -0.13981   0.14252
  22        3PX         0.66509   0.93920   0.30403  -0.31507
  23        3PY         0.40588   0.54033   0.25702  -0.21183
  24        3PZ         0.19955   0.26239   0.07600  -0.16242
  25 4   H  1S         -0.60510   0.44560   0.80940   0.77638
  26        2S         -0.27636   0.16163   0.29358   0.28161
  27        3PX        -0.25449   0.20680   0.24263   0.24429
  28        3PY        -0.42557   0.24017   0.48616   0.38526
  29        3PZ         0.63328  -0.34274  -0.64247  -0.66609
  30 5   H  1S         -0.60508  -0.12879   0.51205  -1.08524
  31        2S         -0.27635  -0.04672   0.18573  -0.39363
  32        3PX         0.16288   0.09415  -0.11009   0.21891
  33        3PY        -0.49833  -0.06919   0.37734  -0.67660
  34        3PZ        -0.60994  -0.09455   0.36291  -0.87363
     Beta Molecular Orbital Coefficients:
                           1         2         3         4         5
                           O         O         O         O         O
     Eigenvalues --    -9.90458  -0.43879  -0.14532  -0.14532  -0.14532
   1 1   C  1S          0.98767  -0.24803   0.00000  -0.00000   0.00000
   2        2S          0.05284   0.47037  -0.00000   0.00000  -0.00000
   3        3S         -0.04190   0.07876  -0.00000   0.00000  -0.00000
   4        4PX        -0.00000  -0.00000   0.30161   0.30824   0.02685
   5        4PY        -0.00000  -0.00000  -0.26237   0.27468  -0.20595
   6        4PZ        -0.00000  -0.00000  -0.16399   0.12746   0.37890
   7        5PX         0.00000   0.00000   0.11879   0.12140   0.01058
   8        5PY         0.00000   0.00000  -0.10334   0.10819  -0.08112
   9        5PZ        -0.00000  -0.00000  -0.06459   0.05020   0.14924
  10        6D 0       -0.00000  -0.00000   0.00638  -0.00943   0.00708
  11        6D+1       -0.00000  -0.00000  -0.00488   0.00813  -0.00726
  12        6D-1        0.00000   0.00000   0.01578   0.00179  -0.01121
  13        6D+2        0.00000  -0.00000  -0.00301   0.00794  -0.00110
  14        6D-2       -0.00000  -0.00000   0.00758   0.01261   0.01226
  15 2   H  1S         -0.00360   0.18126  -0.29867  -0.06896  -0.22649
  16        2S          0.00803   0.05147  -0.16446  -0.03797  -0.12472
  17        3PX        -0.00194   0.01656  -0.00551   0.00609  -0.01041
  18        3PY         0.00176  -0.01496   0.00529   0.01156   0.00379
  19        3PZ        -0.00076   0.00644  -0.01081   0.00260   0.00732
  20 3   H  1S         -0.00360   0.18126   0.06732   0.37498   0.01083
  21        2S          0.00803   0.05147   0.03707   0.20648   0.00596
  22        3PX         0.00226  -0.01921   0.00543  -0.01206   0.00021
  23        3PY         0.00138  -0.01172  -0.01046  -0.00469  -0.00673
  24        3PZ         0.00068  -0.00576  -0.00622  -0.00254   0.01150
  25 4   H  1S         -0.00360   0.18126  -0.07562  -0.12570   0.35176
  26        2S          0.00803   0.05147  -0.04164  -0.06922   0.19370
  27        3PX        -0.00086   0.00735   0.00764   0.00674   0.00857
  28        3PY        -0.00144   0.01229  -0.01088   0.00385   0.00659
  29        3PZ         0.00215  -0.01829  -0.00092   0.01082  -0.00758
  30 5   H  1S         -0.00360   0.18126   0.30696  -0.18031  -0.13609
  31        2S          0.00803   0.05147   0.16903  -0.09929  -0.07494
  32        3PX         0.00055  -0.00470   0.00498   0.01205   0.00275
  33        3PY        -0.00169   0.01439   0.00514   0.00070  -0.01222
  34        3PZ        -0.00207   0.01762   0.01113  -0.00558   0.00451
                           6         7         8         9        10
                           V         V         V         V         V
     Eigenvalues --     0.28064   0.36143   0.36143   0.36143   0.64777
   1 1   C  1S         -0.13792   0.00000  -0.00000  -0.00000  -0.00000
   2        2S          0.13997  -0.00000   0.00000   0.00000   0.00001
   3        3S          3.19361   0.00000  -0.00000  -0.00001  -0.00002
   4        4PX        -0.00000  -0.33059  -0.00136  -0.11269  -0.02512
   5        4PY         0.00000  -0.05752   0.30237   0.16509   0.04353
   6        4PZ         0.00000  -0.09692  -0.17481   0.28642  -0.29313
   7        5PX        -0.00000  -1.23590  -0.00507  -0.42131   0.10863
   8        5PY        -0.00000  -0.21502   1.13041   0.61717  -0.18825
   9        5PZ         0.00000  -0.36234  -0.65353   1.07078   1.26782
  10        6D 0       -0.00000  -0.00032   0.00107   0.00043  -0.01164
  11        6D+1       -0.00000   0.00028  -0.00099  -0.00028   0.01517
  12        6D-1        0.00000   0.00055  -0.00044   0.00158   0.05718
  13        6D+2       -0.00000   0.00046  -0.00046  -0.00040  -0.00711
  14        6D-2        0.00000   0.00152   0.00071  -0.00031  -0.05472
  15 2   H  1S         -0.00644  -0.03801  -0.04115  -0.01809   0.37698
  16        2S         -1.13904  -1.39692  -1.51229  -0.66473  -0.00129
  17        3PX         0.00037  -0.00526  -0.00214  -0.00206  -0.00843
  18        3PY        -0.00033   0.00120   0.00494   0.00249   0.00501
  19        3PZ         0.00014  -0.00173  -0.00257   0.00249   0.03217
  20 3   H  1S         -0.00644   0.05502  -0.01822  -0.01031  -0.21204
  21        2S         -1.13904   2.02198  -0.66956  -0.37892   0.00073
  22        3PX        -0.00043  -0.00660   0.00108  -0.00050  -0.00441
  23        3PY        -0.00026  -0.00259   0.00368   0.00202  -0.01005
  24        3PZ        -0.00013  -0.00196  -0.00142   0.00304   0.03440
  25 4   H  1S         -0.00644  -0.00990   0.05009  -0.02930  -0.72890
  26        2S         -1.13904  -0.36375   1.84086  -1.07666   0.00250
  27        3PX         0.00016  -0.00352   0.00114  -0.00180   0.01307
  28        3PY         0.00027  -0.00095   0.00494   0.00052   0.01116
  29        3PZ        -0.00041  -0.00040  -0.00461   0.00453   0.01195
  30 5   H  1S         -0.00644  -0.00711   0.00928   0.05770   0.56396
  31        2S         -1.13905  -0.26131   0.34100   2.12033  -0.00192
  32        3PX        -0.00010  -0.00319  -0.00015  -0.00197   0.00806
  33        3PY         0.00032  -0.00089   0.00343   0.00424  -0.02049
  34        3PZ         0.00039  -0.00136  -0.00123   0.00603   0.01825
                          11        12        13        14        15
                           V         V         V         V         V
     Eigenvalues --     0.64778   0.64778   0.89162   0.91991   0.91991
   1 1   C  1S          0.00000   0.00000   0.32767  -0.00000  -0.00000
   2        2S         -0.00000  -0.00000  -2.08614   0.00003   0.00002
   3        3S         -0.00000   0.00001   5.22839  -0.00008  -0.00006
   4        4PX        -0.03815  -0.29388  -0.00000  -0.44066  -0.75571
   5        4PY        -0.29221   0.03422  -0.00002  -0.70290   0.13707
   6        4PZ        -0.04012   0.03026  -0.00002   0.43879  -0.53936
   7        5PX         0.16501   1.27106   0.00000   0.74562   1.27869
   8        5PY         1.26384  -0.14799   0.00003   1.18934  -0.23193
   9        5PZ         0.17353  -0.13089   0.00003  -0.74245   0.91261
  10        6D 0        0.05497   0.00163  -0.00000  -0.08802   0.00812
  11        6D+1       -0.04760  -0.00334   0.00000   0.08278  -0.01055
  12        6D-1        0.01519  -0.05605  -0.00000   0.08035   0.00782
  13        6D+2       -0.03379  -0.00981   0.00000   0.04697   0.02486
  14        6D-2       -0.00463  -0.05856   0.00000  -0.00138   0.14969
  15 2   H  1S         -0.44433   0.66165   0.22896   0.16145  -0.48203
  16        2S          0.00152  -0.00225  -1.25211  -0.50353   1.50344
  17        3PX         0.01841   0.01645  -0.07255  -0.08453   0.09607
  18        3PY         0.02423   0.01407   0.06553  -0.00673  -0.12795
  19        3PZ         0.01032  -0.01168  -0.02819   0.01319   0.01879
  20 3   H  1S         -0.56017  -0.64697   0.22897   0.37879   0.42802
  21        2S          0.00192   0.00221  -1.25213  -1.18141  -1.33495
  22        3PX        -0.01517   0.01372   0.08414   0.10627   0.10063
  23        3PY         0.02438  -0.01834   0.05134   0.03210   0.10655
  24        3PZ        -0.00097  -0.01070   0.02524   0.07497   0.00660
  25 4   H  1S          0.40048   0.29263   0.22895  -0.53185   0.16019
  26        2S         -0.00137  -0.00100  -1.25210   1.65884  -0.49960
  27        3PX        -0.00068   0.03277  -0.03219   0.04171  -0.07961
  28        3PY         0.02743  -0.01095  -0.05384   0.07231  -0.02741
  29        3PZ         0.01860   0.00614   0.08011  -0.15341   0.01548
  30 5   H  1S          0.60401  -0.30731   0.22894  -0.00839  -0.10617
  31        2S         -0.00205   0.00104  -1.25205   0.02618   0.33116
  32        3PX         0.01004   0.03408   0.02060  -0.03401  -0.06661
  33        3PY         0.02044   0.00392  -0.06304  -0.05073   0.03965
  34        3PZ        -0.01471   0.00625  -0.07715   0.03595  -0.00484
                          16        17        18        19        20
                           V         V         V         V         V
     Eigenvalues --     0.91992   1.02091   1.34141   1.34142   1.78806
   1 1   C  1S         -0.00001   0.03030   0.00000  -0.00000   0.00000
   2        2S          0.00006  -1.02114  -0.00001   0.00001  -0.00000
   3        3S         -0.00018   4.35729   0.00002  -0.00003   0.00000
   4        4PX         0.33987  -0.00000  -0.00000   0.00000  -0.00000
   5        4PY        -0.60658  -0.00001  -0.00000  -0.00000   0.00000
   6        4PZ        -0.63036  -0.00000  -0.00000   0.00000  -0.00000
   7        5PX        -0.57507  -0.00000   0.00000  -0.00000   0.00000
   8        5PY         1.02634  -0.00000   0.00000   0.00000   0.00000
   9        5PZ         1.06658   0.00001  -0.00000  -0.00000   0.00001
  10        6D 0       -0.05648  -0.00000   0.00141   0.27151  -0.00000
  11        6D+1        0.04201   0.00000  -0.20092   0.21684   0.00000
  12        6D-1       -0.12888  -0.00000   0.02792  -0.00613  -0.00000
  13        6D+2        0.04077   0.00000   0.30705   0.13647   0.00000
  14        6D-2        0.00599   0.00000  -0.06669  -0.02179   0.00000
  15 2   H  1S          0.28451  -0.75041  -0.00000   0.00000   0.00000
  16        2S         -0.88732  -0.64797  -0.00000   0.00000   0.00000
  17        3PX        -0.06471   0.04927  -0.24574  -0.07129  -0.33826
  18        3PY         0.03585  -0.04451  -0.18938  -0.20510  -0.47670
  19        3PZ        -0.08269   0.01915   0.19216  -0.29331  -0.23763
  20 3   H  1S          0.11262  -0.75041  -0.00000   0.00000  -0.00000
  21        2S         -0.35121  -0.64798  -0.00000   0.00000  -0.00000
  22        3PX         0.06713  -0.05715   0.20284   0.03110  -0.28642
  23        3PY        -0.02046  -0.03487  -0.24329  -0.20019   0.52955
  24        3PZ        -0.03513  -0.01714  -0.18123   0.30354  -0.12247
  25 4   H  1S          0.17561  -0.75042  -0.00000   0.00000  -0.00000
  26        2S         -0.54766  -0.64797  -0.00000   0.00001  -0.00000
  27        3PX         0.00090   0.02187  -0.26268   0.22548   0.25214
  28        3PY        -0.08716   0.03657   0.24616   0.18788   0.07796
  29        3PZ         0.01401  -0.05441   0.05986   0.21688   0.15372
  30 5   H  1S         -0.57273  -0.75042  -0.00000   0.00000   0.00000
  31        2S          1.78636  -0.64796  -0.00000   0.00001   0.00000
  32        3PX        -0.02602  -0.01400   0.30558  -0.18529   0.37253
  33        3PY         0.11229   0.04282   0.18651   0.21740  -0.13081
  34        3PZ         0.14590   0.05241  -0.07078  -0.22711   0.20636
                          21        22        23        24        25
                           V         V         V         V         V
     Eigenvalues --     1.78806   1.78806   2.01660   2.01660   2.01660
   1 1   C  1S          0.00000  -0.00000   0.00000   0.00000   0.00000
   2        2S         -0.00000   0.00000   0.00000   0.00000  -0.00000
   3        3S          0.00000  -0.00000  -0.00001  -0.00002  -0.00000
   4        4PX        -0.00000   0.00000  -0.17195  -0.00327   0.05602
   5        4PY        -0.00000  -0.00000  -0.01093  -0.17516  -0.04377
   6        4PZ         0.00000  -0.00000  -0.05505   0.04499  -0.16631
   7        5PX        -0.00000  -0.00001   0.87928   0.01673  -0.28649
   8        5PY         0.00001   0.00000   0.05588   0.89569   0.22383
   9        5PZ        -0.00000   0.00001   0.28148  -0.23008   0.85047
  10        6D 0       -0.00000  -0.00000  -0.03903  -0.22888  -0.02986
  11        6D+1        0.00000   0.00000   0.03315   0.20582   0.00454
  12        6D-1       -0.00000  -0.00000   0.10789   0.01764  -0.32132
  13        6D+2        0.00000   0.00000   0.07913   0.11529   0.05284
  14        6D-2       -0.00000  -0.00000   0.30879  -0.08673   0.09447
  15 2   H  1S         -0.00000  -0.00000   0.33489  -0.31475  -0.05646
  16        2S         -0.00000  -0.00000   0.12969  -0.12189  -0.02187
  17        3PX         0.19244   0.21287  -0.45248  -0.00276   0.14647
  18        3PY         0.03182   0.07723  -0.02286  -0.45990  -0.11455
  19        3PZ        -0.42124  -0.36826  -0.14527   0.11904  -0.43136
  20 3   H  1S         -0.00000   0.00000  -0.41308  -0.20463  -0.04357
  21        2S         -0.00000   0.00000  -0.15997  -0.07924  -0.01687
  22        3PX        -0.14253   0.15560  -0.45510  -0.01282   0.14452
  23        3PY        -0.03368  -0.12951  -0.03370  -0.45735  -0.11419
  24        3PZ         0.54359  -0.25520  -0.14551   0.11550  -0.43203
  25 4   H  1S          0.00000  -0.00000   0.04314   0.33060  -0.32132
  26        2S          0.00000  -0.00000   0.01671   0.12803  -0.12444
  27        3PX        -0.51101  -0.18834  -0.44673  -0.01116   0.14804
  28        3PY        -0.02593   0.53051  -0.02895  -0.45918  -0.10929
  29        3PZ        -0.22279   0.28082  -0.14203   0.12346  -0.43823
  30 5   H  1S          0.00000   0.00000   0.03505   0.18878   0.42135
  31        2S          0.00000   0.00000   0.01357   0.07312   0.16318
  32        3PX         0.46110  -0.18012  -0.44620  -0.00752   0.14762
  33        3PY         0.02778  -0.47824  -0.02893  -0.45770  -0.12029
  34        3PZ         0.10044   0.34263  -0.14358   0.11315  -0.43993
                          26        27        28        29        30
                           V         V         V         V         V
     Eigenvalues --     2.39426   2.39426   2.39426   2.79504   2.79504
   1 1   C  1S         -0.00000  -0.00000  -0.00000  -0.00001   0.00000
   2        2S          0.00001   0.00000   0.00000   0.00004  -0.00003
   3        3S         -0.00001  -0.00000   0.00000   0.00001  -0.00001
   4        4PX         0.24424  -0.13463   0.52430  -0.00000   0.00001
   5        4PY         0.23700   0.54373   0.02921  -0.00000  -0.00000
   6        4PZ        -0.48666   0.19722   0.27735  -0.00001  -0.00000
   7        5PX         0.31510  -0.17369   0.67641  -0.00000   0.00000
   8        5PY         0.30576   0.70148   0.03769   0.00000   0.00000
   9        5PZ        -0.62785   0.25444   0.35782  -0.00000  -0.00000
  10        6D 0        0.15281   0.25322   0.04003   0.82564  -0.00084
  11        6D+1       -0.15932  -0.21086  -0.02877   0.65557  -0.61506
  12        6D-1       -0.35755   0.23477  -0.06545  -0.01812   0.08502
  13        6D+2       -0.05174  -0.15184  -0.10289   0.42078   0.93108
  14        6D-2        0.09533   0.03980  -0.41356  -0.06752  -0.20238
  15 2   H  1S         -0.04139  -0.14300   0.15773  -0.00001   0.00001
  16        2S         -0.12811  -0.44256   0.48814  -0.00001   0.00001
  17        3PX        -0.40154  -0.40992   0.07677   0.09172   0.30903
  18        3PY        -0.09438  -0.05135  -0.57156   0.25987   0.23696
  19        3PZ         0.42485  -0.40854  -0.04369   0.36799  -0.24437
  20 3   H  1S         -0.07335  -0.07742  -0.18886  -0.00001   0.00001
  21        2S         -0.22700  -0.23961  -0.58448  -0.00000   0.00000
  22        3PX         0.07988   0.47629   0.31012  -0.04076  -0.25529
  23        3PY        -0.03910  -0.33450   0.47965   0.25410   0.30491
  24        3PZ         0.58324  -0.09444  -0.02688  -0.38097   0.23069
  25 4   H  1S          0.21397   0.03280  -0.01352  -0.00001   0.00001
  26        2S          0.66219   0.10151  -0.04184  -0.00000   0.00000
  27        3PX         0.11752   0.18988  -0.54652  -0.28200   0.33269
  28        3PY         0.36773  -0.45042  -0.06737  -0.23862  -0.30862
  29        3PZ        -0.41336  -0.33487  -0.22019  -0.27367  -0.07372
  30 5   H  1S         -0.09922   0.18762   0.04465  -0.00001   0.00001
  31        2S         -0.30708   0.58066   0.13818  -0.00001   0.00000
  32        3PX        -0.13667  -0.06840  -0.57196   0.23104  -0.38642
  33        3PY        -0.56496   0.07757   0.11852  -0.27536  -0.23326
  34        3PZ         0.08434   0.56266  -0.09625   0.28665   0.08739
                          31        32        33        34
                           V         V         V         V
     Eigenvalues --     2.87904   3.17453   3.17454   3.17454
   1 1   C  1S         -0.31474  -0.00000   0.00000  -0.00000
   2        2S          2.00334   0.00000  -0.00001   0.00004
   3        3S          1.02835   0.00000  -0.00000   0.00001
   4        4PX        -0.00000   1.13057  -0.13936   0.05605
   5        4PY        -0.00001   0.14904   1.09365  -0.28721
   6        4PZ         0.00001   0.01864  -0.29202  -1.10234
   7        5PX        -0.00000   0.57754  -0.07119   0.02863
   8        5PY        -0.00000   0.07614   0.55867  -0.14671
   9        5PZ         0.00001   0.00952  -0.14918  -0.56311
  10        6D 0       -0.00002  -0.25084  -0.90477   0.16133
  11        6D+1       -0.00002   0.24166   0.81153  -0.05537
  12        6D-1       -0.00001   0.76997  -0.03375   1.14618
  13        6D+2        0.00001   0.31747   0.42810  -0.29326
  14        6D-2        0.00000   1.05069  -0.50727  -0.70009
  15 2   H  1S         -0.60283   0.75545  -0.93433  -0.08503
  16        2S         -0.27496   0.27463  -0.33966  -0.03091
  17        3PX        -0.57359   0.59797  -0.66254  -0.05609
  18        3PY         0.51813  -0.46854   0.65768   0.03619
  19        3PZ        -0.22291   0.20663  -0.27201  -0.09057
  20 3   H  1S         -0.60283  -1.07169  -0.38465   0.39294
  21        2S         -0.27496  -0.38960  -0.13984   0.14285
  22        3PX         0.66523   0.93917   0.30373  -0.31556
  23        3PY         0.40596   0.54004   0.25747  -0.21223
  24        3PZ         0.19959   0.26215   0.07581  -0.16314
  25 4   H  1S         -0.60284   0.44560   0.80741   0.77487
  26        2S         -0.27497   0.16199   0.29352   0.28170
  27        3PX        -0.25454   0.20759   0.24229   0.24413
  28        3PY        -0.42566   0.24058   0.48631   0.38493
  29        3PZ         0.63340  -0.34328  -0.64195  -0.66637
  30 5   H  1S         -0.60282  -0.12935   0.51157  -1.08283
  31        2S         -0.27496  -0.04703   0.18598  -0.39364
  32        3PX         0.16291   0.09489  -0.11024   0.21871
  33        3PY        -0.49843  -0.06956   0.37808  -0.67621
  34        3PZ        -0.61006  -0.09516   0.36299  -0.87358
     Alpha Density Matrix:
                           1         2         3         4         5
   1 1   C  1S          1.05789
   2        2S         -0.09081   0.26295
   3        3S         -0.49500   0.47018  10.22915
   4        4PX        -0.00000  -0.00000   0.00000   0.18781
   5        4PY        -0.00000   0.00000   0.00000  -0.00000   0.18781
   6        4PZ        -0.00000   0.00000   0.00000  -0.00000   0.00000
   7        5PX         0.00000  -0.00000  -0.00000   0.06463   0.00000
   8        5PY         0.00000   0.00000  -0.00001   0.00000   0.06463
   9        5PZ        -0.00000   0.00000   0.00001   0.00000  -0.00000
  10        6D 0       -0.00000  -0.00000  -0.00000  -0.00079  -0.00569
  11        6D+1        0.00000  -0.00000  -0.00000   0.00083   0.00498
  12        6D-1        0.00000   0.00000   0.00000   0.00498  -0.00133
  13        6D+2        0.00000   0.00000  -0.00000   0.00150   0.00318
  14        6D-2       -0.00000  -0.00000  -0.00000   0.00646  -0.00104
  15 2   H  1S         -0.04689   0.08595  -0.02777  -0.11602   0.10480
  16        2S          0.15068  -0.13109  -3.63703  -0.07614   0.06878
  17        3PX        -0.00601   0.00783   0.00377   0.00031   0.00503
  18        3PY         0.00543  -0.00708  -0.00341   0.00503   0.00134
  19        3PZ        -0.00234   0.00304   0.00147  -0.00216   0.00195
  20 3   H  1S         -0.04689   0.08595  -0.02777   0.13455   0.08211
  21        2S          0.15068  -0.13109  -3.63703   0.08830   0.05389
  22        3PX         0.00697  -0.00908  -0.00437  -0.00161  -0.00457
  23        3PY         0.00426  -0.00554  -0.00267  -0.00457   0.00309
  24        3PZ         0.00209  -0.00273  -0.00131  -0.00225  -0.00137
  25 4   H  1S         -0.04689   0.08595  -0.02777  -0.05149  -0.08610
  26        2S          0.15068  -0.13109  -3.63703  -0.03379  -0.05650
  27        3PX        -0.00267   0.00348   0.00167   0.00478  -0.00183
  28        3PY        -0.00446   0.00581   0.00280  -0.00183   0.00281
  29        3PZ         0.00664  -0.00865  -0.00416   0.00273   0.00456
  30 5   H  1S         -0.04689   0.08595  -0.02776   0.03295  -0.10082
  31        2S          0.15068  -0.13109  -3.63703   0.02163  -0.06616
  32        3PX         0.00171  -0.00222  -0.00107   0.00543   0.00137
  33        3PY        -0.00522   0.00681   0.00328   0.00137   0.00168
  34        3PZ        -0.00639   0.00833   0.00401   0.00168  -0.00514
                           6         7         8         9        10
   6        4PZ         0.18781
   7        5PX         0.00000   0.02224
   8        5PY        -0.00000   0.00000   0.02224
   9        5PZ         0.06463   0.00000  -0.00000   0.02224
  10        6D 0        0.00043  -0.00027  -0.00196   0.00015   0.00018
  11        6D+1       -0.00091   0.00029   0.00171  -0.00031  -0.00016
  12        6D-1       -0.00657   0.00171  -0.00046  -0.00226   0.00000
  13        6D+2        0.00108   0.00052   0.00109   0.00037  -0.00010
  14        6D-2        0.00498   0.00222  -0.00036   0.00171   0.00002
  15 2   H  1S         -0.04509  -0.03993   0.03607  -0.01552  -0.00279
  16        2S         -0.02959  -0.02620   0.02367  -0.01019  -0.00183
  17        3PX        -0.00216   0.00011   0.00173  -0.00074  -0.00016
  18        3PY         0.00195   0.00173   0.00046   0.00067  -0.00006
  19        3PZ         0.00504  -0.00074   0.00067   0.00173  -0.00004
  20 3   H  1S          0.04037   0.04630   0.02826   0.01389  -0.00296
  21        2S          0.02649   0.03039   0.01855   0.00911  -0.00194
  22        3PX        -0.00225  -0.00055  -0.00157  -0.00077   0.00014
  23        3PY        -0.00137  -0.00157   0.00106  -0.00047  -0.00008
  24        3PZ         0.00520  -0.00077  -0.00047   0.00179   0.00006
  25 4   H  1S          0.12812  -0.01772  -0.02963   0.04409   0.00312
  26        2S          0.08408  -0.01163  -0.01944   0.02893   0.00205
  27        3PX         0.00273   0.00165  -0.00063   0.00094   0.00004
  28        3PY         0.00456  -0.00063   0.00097   0.00157  -0.00007
  29        3PZ        -0.00091   0.00094   0.00157  -0.00031  -0.00015
  30 5   H  1S         -0.12340   0.01134  -0.03469  -0.04246   0.00263
  31        2S         -0.08098   0.00744  -0.02277  -0.02787   0.00173
  32        3PX         0.00168   0.00187   0.00047   0.00058  -0.00006
  33        3PY        -0.00514   0.00047   0.00058  -0.00177  -0.00007
  34        3PZ        -0.00042   0.00058  -0.00177  -0.00014   0.00015
                          11        12        13        14        15
  11        6D+1        0.00014
  12        6D-1        0.00002   0.00037
  13        6D+2        0.00009  -0.00002   0.00007
  14        6D-2       -0.00002   0.00000   0.00006   0.00036
  15 2   H  1S          0.00248  -0.00224   0.00059  -0.00577   0.17313
  16        2S          0.00163  -0.00147   0.00039  -0.00379   0.11578
  17        3PX         0.00015   0.00005   0.00008  -0.00007   0.00597
  18        3PY         0.00005   0.00006   0.00007   0.00022  -0.00540
  19        3PZ         0.00002  -0.00025   0.00004   0.00005   0.00232
  20 3   H  1S          0.00258   0.00157   0.00270   0.00524  -0.01484
  21        2S          0.00169   0.00103   0.00177   0.00344  -0.00757
  22        3PX        -0.00012   0.00007  -0.00010  -0.00009  -0.00432
  23        3PY         0.00007  -0.00010   0.00001  -0.00021   0.00286
  24        3PZ        -0.00007  -0.00023  -0.00001   0.00007  -0.00162
  25 4   H  1S         -0.00313  -0.00523  -0.00113   0.00210  -0.01484
  26        2S         -0.00205  -0.00343  -0.00074   0.00138  -0.00757
  27        3PX        -0.00004   0.00004   0.00002   0.00025  -0.00337
  28        3PY         0.00004  -0.00023   0.00006   0.00004   0.00372
  29        3PZ         0.00014   0.00007   0.00009   0.00004  -0.00206
  30 5   H  1S         -0.00193   0.00590  -0.00215  -0.00158  -0.01484
  31        2S         -0.00127   0.00387  -0.00141  -0.00103  -0.00757
  32        3PX         0.00005   0.00008   0.00008   0.00022  -0.00380
  33        3PY         0.00008   0.00020   0.00001  -0.00010   0.00379
  34        3PZ        -0.00013   0.00010  -0.00008   0.00008  -0.00078
                          16        17        18        19        20
  16        2S          1.35950
  17        3PX         0.00191   0.00042
  18        3PY        -0.00173  -0.00021   0.00037
  19        3PZ         0.00074   0.00009  -0.00008   0.00022
  20 3   H  1S         -0.00757   0.00480   0.00204   0.00149   0.17313
  21        2S          1.27854   0.00114   0.00315   0.00020   0.11578
  22        3PX        -0.00050  -0.00040   0.00017  -0.00021  -0.00693
  23        3PY         0.00330  -0.00009   0.00005  -0.00002  -0.00423
  24        3PZ        -0.00036  -0.00019   0.00007   0.00012  -0.00208
  25 4   H  1S         -0.00757  -0.00102  -0.00323   0.00424  -0.01484
  26        2S          1.27854  -0.00268  -0.00031   0.00200  -0.00757
  27        3PX        -0.00310   0.00004   0.00004   0.00004   0.00447
  28        3PY         0.00095   0.00021  -0.00015   0.00025   0.00301
  29        3PZ         0.00086  -0.00015   0.00035  -0.00012   0.00061
  30 5   H  1S         -0.00758   0.00162  -0.00369  -0.00363  -0.01484
  31        2S          1.27855  -0.00094  -0.00061  -0.00316  -0.00757
  32        3PX        -0.00192  -0.00005   0.00024  -0.00003   0.00404
  33        3PY         0.00074   0.00033  -0.00021  -0.00005   0.00308
  34        3PZ        -0.00265   0.00014  -0.00024   0.00002   0.00189
                          21        22        23        24        25
  21        2S          1.35950
  22        3PX        -0.00222   0.00050
  23        3PY        -0.00135   0.00019   0.00030
  24        3PZ        -0.00067   0.00009   0.00006   0.00021
  25 4   H  1S         -0.00757  -0.00230  -0.00311   0.00380   0.17313
  26        2S          1.27854   0.00082  -0.00062   0.00320   0.11578
  27        3PX         0.00204  -0.00016  -0.00025  -0.00001   0.00265
  28        3PY         0.00048  -0.00033  -0.00008   0.00006   0.00443
  29        3PZ         0.00262   0.00021   0.00022   0.00001  -0.00660
  30 5   H  1S         -0.00758   0.00035  -0.00357  -0.00407  -0.01484
  31        2S          1.27855   0.00256  -0.00092  -0.00197  -0.00757
  32        3PX         0.00322  -0.00001  -0.00007  -0.00000  -0.00178
  33        3PY         0.00028  -0.00025  -0.00013  -0.00025  -0.00218
  34        3PZ        -0.00089  -0.00020  -0.00032  -0.00009   0.00464
                          26        27        28        29        30
  26        2S          1.35950
  27        3PX         0.00085   0.00023
  28        3PY         0.00142   0.00008   0.00031
  29        3PZ        -0.00211  -0.00011  -0.00019   0.00047
  30 5   H  1S         -0.00758   0.00129  -0.00272  -0.00451   0.17313
  31        2S          1.27855  -0.00004  -0.00327  -0.00075   0.11578
  32        3PX        -0.00060   0.00012  -0.00005   0.00018  -0.00170
  33        3PY        -0.00318   0.00004   0.00005  -0.00016   0.00519
  34        3PZ         0.00091   0.00021   0.00010  -0.00040   0.00635
                          31        32        33        34
  31        2S          1.35950
  32        3PX        -0.00054   0.00020
  33        3PY         0.00166  -0.00006   0.00036
  34        3PZ         0.00203  -0.00007   0.00022   0.00045
     Beta Density Matrix:
                           1         2         3         4         5
   1 1   C  1S          1.03702
   2        2S         -0.06448   0.22404
   3        3S         -0.06091   0.03483   0.00796
   4        4PX        -0.00000   0.00000   0.00000   0.18670
   5        4PY         0.00000  -0.00000   0.00000  -0.00000   0.18670
   6        4PZ         0.00000  -0.00000   0.00000  -0.00000   0.00000
   7        5PX        -0.00000   0.00000   0.00000   0.07354   0.00000
   8        5PY        -0.00000   0.00000   0.00000   0.00000   0.07354
   9        5PZ         0.00000  -0.00000   0.00000   0.00000  -0.00000
  10        6D 0       -0.00000  -0.00000  -0.00000  -0.00079  -0.00572
  11        6D+1       -0.00000   0.00000   0.00000   0.00084   0.00501
  12        6D-1        0.00000   0.00000  -0.00000   0.00501  -0.00134
  13        6D+2        0.00000   0.00000   0.00000   0.00151   0.00320
  14        6D-2       -0.00000  -0.00000   0.00000   0.00650  -0.00105
  15 2   H  1S         -0.04851   0.08507   0.01443  -0.11742   0.10607
  16        2S         -0.00483   0.02463   0.00372  -0.06466   0.05841
  17        3PX        -0.00603   0.00769   0.00139  -0.00006   0.00526
  18        3PY         0.00545  -0.00694  -0.00125   0.00526   0.00101
  19        3PZ        -0.00234   0.00299   0.00054  -0.00226   0.00204
  20 3   H  1S         -0.04851   0.08507   0.01443   0.13618   0.08310
  21        2S         -0.00483   0.02463   0.00372   0.07499   0.04576
  22        3PX         0.00699  -0.00892  -0.00161  -0.00207  -0.00478
  23        3PY         0.00427  -0.00544  -0.00098  -0.00478   0.00284
  24        3PZ         0.00210  -0.00267  -0.00048  -0.00235  -0.00143
  25 4   H  1S         -0.04851   0.08507   0.01443  -0.05211  -0.08713
  26        2S         -0.00483   0.02463   0.00372  -0.02869  -0.04798
  27        3PX        -0.00268   0.00341   0.00062   0.00461  -0.00192
  28        3PY        -0.00447   0.00570   0.00103  -0.00192   0.00255
  29        3PZ         0.00666  -0.00849  -0.00153   0.00285   0.00477
  30 5   H  1S         -0.04851   0.08507   0.01443   0.03335  -0.10204
  31        2S         -0.00483   0.02463   0.00372   0.01836  -0.05619
  32        3PX         0.00171  -0.00218  -0.00039   0.00529   0.00144
  33        3PY        -0.00524   0.00668   0.00120   0.00144   0.00136
  34        3PZ        -0.00641   0.00818   0.00147   0.00176  -0.00538
                           6         7         8         9        10
   6        4PZ         0.18670
   7        5PX         0.00000   0.02896
   8        5PY        -0.00000   0.00000   0.02896
   9        5PZ         0.07354   0.00000  -0.00000   0.02896
  10        6D 0        0.00044  -0.00031  -0.00225   0.00017   0.00018
  11        6D+1       -0.00091   0.00033   0.00197  -0.00036  -0.00016
  12        6D-1       -0.00661   0.00197  -0.00053  -0.00260   0.00000
  13        6D+2        0.00109   0.00059   0.00126   0.00043  -0.00010
  14        6D-2        0.00501   0.00256  -0.00041   0.00197   0.00002
  15 2   H  1S         -0.04563  -0.04625   0.04178  -0.01797  -0.00286
  16        2S         -0.02513  -0.02547   0.02300  -0.00990  -0.00157
  17        3PX        -0.00226  -0.00003   0.00207  -0.00089  -0.00017
  18        3PY         0.00204   0.00207   0.00040   0.00081  -0.00005
  19        3PZ         0.00488  -0.00089   0.00081   0.00192  -0.00004
  20 3   H  1S          0.04086   0.05364   0.03273   0.01609  -0.00303
  21        2S          0.02250   0.02953   0.01802   0.00886  -0.00167
  22        3PX        -0.00235  -0.00082  -0.00188  -0.00093   0.00015
  23        3PY        -0.00143  -0.00188   0.00112  -0.00056  -0.00007
  24        3PZ         0.00505  -0.00093  -0.00056   0.00199   0.00007
  25 4   H  1S          0.12966  -0.02052  -0.03432   0.05107   0.00319
  26        2S          0.07140  -0.01130  -0.01890   0.02812   0.00176
  27        3PX         0.00285   0.00182  -0.00076   0.00112   0.00005
  28        3PY         0.00477  -0.00076   0.00101   0.00188  -0.00006
  29        3PZ        -0.00134   0.00112   0.00188  -0.00053  -0.00016
  30 5   H  1S         -0.12489   0.01314  -0.04019  -0.04919   0.00269
  31        2S         -0.06877   0.00723  -0.02213  -0.02709   0.00148
  32        3PX         0.00176   0.00208   0.00057   0.00069  -0.00006
  33        3PY        -0.00538   0.00057   0.00054  -0.00212  -0.00006
  34        3PZ        -0.00083   0.00069  -0.00212  -0.00033   0.00016
                          11        12        13        14        15
  11        6D+1        0.00014
  12        6D-1        0.00002   0.00038
  13        6D+2        0.00009  -0.00002   0.00007
  14        6D-2       -0.00002   0.00000   0.00006   0.00037
  15 2   H  1S          0.00254  -0.00230   0.00060  -0.00591   0.17812
  16        2S          0.00140  -0.00126   0.00033  -0.00325   0.08929
  17        3PX         0.00015   0.00004   0.00008  -0.00009   0.00659
  18        3PY         0.00004   0.00006   0.00007   0.00023  -0.00595
  19        3PZ         0.00002  -0.00025   0.00005   0.00004   0.00256
  20 3   H  1S          0.00264   0.00161   0.00276   0.00537  -0.01555
  21        2S          0.00145   0.00089   0.00152   0.00296  -0.01736
  22        3PX        -0.00013   0.00006  -0.00011  -0.00011  -0.00433
  23        3PY         0.00006  -0.00010   0.00000  -0.00022   0.00284
  24        3PZ        -0.00007  -0.00023  -0.00001   0.00006  -0.00162
  25 4   H  1S         -0.00321  -0.00536  -0.00116   0.00215  -0.01555
  26        2S         -0.00177  -0.00295  -0.00064   0.00119  -0.01736
  27        3PX        -0.00004   0.00004   0.00002   0.00025  -0.00335
  28        3PY         0.00004  -0.00024   0.00006   0.00005   0.00372
  29        3PZ         0.00015   0.00009   0.00010   0.00004  -0.00208
  30 5   H  1S         -0.00198   0.00605  -0.00221  -0.00162  -0.01555
  31        2S         -0.00109   0.00333  -0.00122  -0.00089  -0.01736
  32        3PX         0.00005   0.00007   0.00008   0.00022  -0.00379
  33        3PY         0.00007   0.00022   0.00000  -0.00010   0.00380
  34        3PZ        -0.00013   0.00012  -0.00008   0.00007  -0.00076
                          16        17        18        19        20
  16        2S          0.04676
  17        3PX         0.00281   0.00045
  18        3PY        -0.00254  -0.00025   0.00040
  19        3PZ         0.00109   0.00011  -0.00010   0.00022
  20 3   H  1S         -0.01736   0.00481   0.00201   0.00150   0.17812
  21        2S         -0.01197   0.00183   0.00185   0.00051   0.08929
  22        3PX        -0.00143  -0.00043   0.00018  -0.00021  -0.00764
  23        3PY         0.00215  -0.00010   0.00004  -0.00002  -0.00466
  24        3PZ        -0.00061  -0.00020   0.00007   0.00011  -0.00229
  25 4   H  1S         -0.01736  -0.00100  -0.00324   0.00424  -0.01555
  26        2S         -0.01197  -0.00137  -0.00104   0.00201  -0.01736
  27        3PX        -0.00221   0.00003   0.00004   0.00005   0.00447
  28        3PY         0.00144   0.00022  -0.00017   0.00026   0.00301
  29        3PZ        -0.00024  -0.00016   0.00037  -0.00014   0.00059
  30 5   H  1S         -0.01736   0.00164  -0.00370  -0.00362  -0.01555
  31        2S         -0.01197   0.00008  -0.00129  -0.00231  -0.01736
  32        3PX        -0.00186  -0.00006   0.00025  -0.00003   0.00403
  33        3PY         0.00138   0.00034  -0.00023  -0.00005   0.00309
  34        3PZ        -0.00129   0.00015  -0.00026   0.00001   0.00191
                          21        22        23        24        25
  21        2S          0.04676
  22        3PX        -0.00326   0.00055
  23        3PY        -0.00199   0.00023   0.00032
  24        3PZ        -0.00098   0.00011   0.00007   0.00021
  25 4   H  1S         -0.01736  -0.00231  -0.00312   0.00379   0.17812
  26        2S         -0.01197  -0.00032  -0.00114   0.00237   0.08929
  27        3PX         0.00210  -0.00018  -0.00026  -0.00001   0.00293
  28        3PY         0.00105  -0.00034  -0.00009   0.00006   0.00489
  29        3PZ         0.00123   0.00022   0.00023  -0.00000  -0.00728
  30 5   H  1S         -0.01736   0.00032  -0.00358  -0.00406  -0.01555
  31        2S         -0.01197   0.00113  -0.00139  -0.00195  -0.01736
  32        3PX         0.00245  -0.00003  -0.00007  -0.00000  -0.00178
  33        3PY         0.00099  -0.00026  -0.00015  -0.00026  -0.00216
  34        3PZ         0.00018  -0.00021  -0.00033  -0.00011   0.00465
                          26        27        28        29        30
  26        2S          0.04676
  27        3PX         0.00125   0.00023
  28        3PY         0.00208   0.00009   0.00033
  29        3PZ        -0.00310  -0.00014  -0.00023   0.00051
  30 5   H  1S         -0.01736   0.00130  -0.00270  -0.00452   0.17812
  31        2S         -0.01197   0.00035  -0.00209  -0.00159   0.08929
  32        3PX        -0.00075   0.00011  -0.00005   0.00019  -0.00187
  33        3PY        -0.00190   0.00005   0.00005  -0.00017   0.00573
  34        3PZ         0.00169   0.00022   0.00011  -0.00043   0.00701
                          31        32        33        34
  31        2S          0.04676
  32        3PX        -0.00080   0.00020
  33        3PY         0.00244  -0.00007   0.00039
  34        3PZ         0.00299  -0.00008   0.00026   0.00049
    Full Mulliken population analysis:
                           1         2         3         4         5
   1 1   C  1S          2.09491
   2        2S         -0.05056   0.48699
   3        3S         -0.08437   0.40324  10.23711
   4        4PX         0.00000   0.00000   0.00000   0.37451
   5        4PY         0.00000   0.00000   0.00000  -0.00000   0.37451
   6        4PZ         0.00000   0.00000   0.00000  -0.00000  -0.00000
   7        5PX         0.00000   0.00000   0.00000   0.07349   0.00000
   8        5PY         0.00000   0.00000   0.00000   0.00000   0.07349
   9        5PZ         0.00000   0.00000   0.00000   0.00000   0.00000
  10        6D 0       -0.00000  -0.00000  -0.00000   0.00000   0.00000
  11        6D+1       -0.00000   0.00000  -0.00000   0.00000   0.00000
  12        6D-1       -0.00000  -0.00000  -0.00000   0.00000   0.00000
  13        6D+2        0.00000   0.00000   0.00000   0.00000   0.00000
  14        6D-2       -0.00000  -0.00000   0.00000   0.00000   0.00000
  15 2   H  1S         -0.00495   0.06412  -0.00611   0.06613   0.05396
  16        2S          0.01280  -0.05590  -2.78758   0.02091   0.01706
  17        3PX        -0.00074   0.00405   0.00069  -0.00003   0.00292
  18        3PY        -0.00060   0.00331   0.00056   0.00292  -0.00011
  19        3PZ        -0.00011   0.00061   0.00010   0.00054   0.00044
  20 3   H  1S         -0.00495   0.06412  -0.00611   0.08894   0.03312
  21        2S          0.01280  -0.05590  -2.78758   0.02812   0.01047
  22        3PX        -0.00100   0.00545   0.00092   0.00078   0.00241
  23        3PY        -0.00037   0.00203   0.00034   0.00241   0.00031
  24        3PZ        -0.00009   0.00049   0.00008   0.00058   0.00022
  25 4   H  1S         -0.00495   0.06412  -0.00611   0.01302   0.03642
  26        2S          0.01280  -0.05590  -2.78759   0.00412   0.01151
  27        3PX        -0.00015   0.00080   0.00013   0.00139   0.00039
  28        3PY        -0.00041   0.00223   0.00038   0.00039   0.00020
  29        3PZ        -0.00090   0.00494   0.00084   0.00086   0.00240
  30 5   H  1S         -0.00495   0.06412  -0.00611   0.00533   0.04993
  31        2S          0.01280  -0.05590  -2.78759   0.00169   0.01579
  32        3PX        -0.00006   0.00033   0.00006   0.00197   0.00022
  33        3PY        -0.00056   0.00306   0.00052   0.00022  -0.00008
  34        3PZ        -0.00084   0.00459   0.00077   0.00033   0.00305
                           6         7         8         9        10
   6        4PZ         0.37451
   7        5PX         0.00000   0.05120
   8        5PY         0.00000   0.00000   0.05120
   9        5PZ         0.07349   0.00000   0.00000   0.05120
  10        6D 0        0.00000   0.00000   0.00000   0.00000   0.00036
  11        6D+1        0.00000   0.00000   0.00000   0.00000  -0.00000
  12        6D-1        0.00000   0.00000   0.00000   0.00000  -0.00000
  13        6D+2        0.00000   0.00000   0.00000   0.00000   0.00000
  14        6D-2        0.00000   0.00000   0.00000   0.00000  -0.00000
  15 2   H  1S          0.00999   0.03471   0.02832   0.00524   0.00066
  16        2S          0.00316   0.01950   0.01592   0.00295   0.00006
  17        3PX         0.00054   0.00001   0.00051   0.00009   0.00001
  18        3PY         0.00044   0.00051   0.00013   0.00008  -0.00000
  19        3PZ         0.00161   0.00009   0.00008   0.00090   0.00001
  20 3   H  1S          0.00801   0.04669   0.01739   0.00420   0.00074
  21        2S          0.00253   0.02623   0.00977   0.00236   0.00007
  22        3PX         0.00058  -0.00010   0.00042   0.00010   0.00002
  23        3PY         0.00022   0.00042   0.00043   0.00004  -0.00001
  24        3PZ         0.00176   0.00010   0.00004   0.00095   0.00002
  25 4   H  1S          0.08063   0.00684   0.01911   0.04233   0.00083
  26        2S          0.02549   0.00384   0.01074   0.02378   0.00008
  27        3PX         0.00086   0.00083   0.00007   0.00015   0.00001
  28        3PY         0.00240   0.00007   0.00037   0.00042  -0.00003
  29        3PZ         0.00039   0.00015   0.00042  -0.00008  -0.00003
  30 5   H  1S          0.07480   0.00280   0.02621   0.03926   0.00059
  31        2S          0.02365   0.00157   0.01473   0.02206   0.00006
  32        3PX         0.00033   0.00102   0.00004   0.00006   0.00001
  33        3PY         0.00305   0.00004   0.00018   0.00053  -0.00004
  34        3PZ         0.00018   0.00006   0.00053  -0.00005  -0.00004
                          11        12        13        14        15
  11        6D+1        0.00028
  12        6D-1        0.00000   0.00075
  13        6D+2        0.00000  -0.00000   0.00015
  14        6D-2        0.00000   0.00000   0.00000   0.00073
  15 2   H  1S          0.00052   0.00043   0.00003   0.00283   0.35125
  16        2S          0.00005   0.00004   0.00000   0.00027   0.14043
  17        3PX         0.00002  -0.00001  -0.00003   0.00003   0.00000
  18        3PY        -0.00001   0.00000  -0.00004   0.00004   0.00000
  19        3PZ        -0.00001  -0.00008   0.00000  -0.00001   0.00000
  20 3   H  1S          0.00056   0.00021   0.00062   0.00233  -0.00183
  21        2S          0.00005   0.00002   0.00006   0.00022  -0.00574
  22        3PX         0.00003  -0.00002  -0.00002   0.00004   0.00056
  23        3PY        -0.00002  -0.00000  -0.00000  -0.00002   0.00003
  24        3PZ        -0.00003  -0.00006   0.00000  -0.00002   0.00007
  25 4   H  1S          0.00083   0.00233   0.00011   0.00038  -0.00183
  26        2S          0.00008   0.00022   0.00001   0.00004  -0.00574
  27        3PX        -0.00002  -0.00001  -0.00001  -0.00006   0.00011
  28        3PY        -0.00001  -0.00001   0.00001  -0.00000   0.00037
  29        3PZ         0.00003   0.00003   0.00002  -0.00001   0.00019
  30 5   H  1S          0.00032   0.00296   0.00039   0.00021  -0.00183
  31        2S          0.00003   0.00028   0.00004   0.00002  -0.00574
  32        3PX        -0.00002  -0.00002   0.00002  -0.00008   0.00029
  33        3PY        -0.00002   0.00003   0.00000   0.00000   0.00040
  34        3PZ         0.00002   0.00004   0.00002  -0.00002  -0.00003
                          16        17        18        19        20
  16        2S          1.40626
  17        3PX         0.00000   0.00087
  18        3PY         0.00000  -0.00000   0.00078
  19        3PZ         0.00000   0.00000   0.00000   0.00044
  20 3   H  1S         -0.00574   0.00062  -0.00002   0.00007   0.35125
  21        2S          0.64167   0.00038  -0.00006   0.00003   0.14043
  22        3PX         0.00025   0.00007   0.00000   0.00001   0.00000
  23        3PY         0.00006  -0.00000   0.00000  -0.00000   0.00000
  24        3PZ         0.00004   0.00001   0.00000   0.00000   0.00000
  25 4   H  1S         -0.00574  -0.00003   0.00032   0.00038  -0.00183
  26        2S          0.64167  -0.00013   0.00013   0.00035  -0.00574
  27        3PX         0.00017   0.00000   0.00000  -0.00000   0.00043
  28        3PY         0.00023   0.00001   0.00001   0.00002   0.00026
  29        3PZ        -0.00006   0.00000   0.00003   0.00001  -0.00003
  30 5   H  1S         -0.00574   0.00013   0.00039   0.00015  -0.00183
  31        2S          0.64167  -0.00007   0.00020   0.00022  -0.00574
  32        3PX         0.00029   0.00000   0.00002  -0.00000   0.00021
  33        3PY         0.00022   0.00003   0.00002   0.00000   0.00029
  34        3PZ        -0.00016   0.00001   0.00001   0.00000   0.00016
                          21        22        23        24        25
  21        2S          1.40626
  22        3PX         0.00000   0.00105
  23        3PY         0.00000   0.00000   0.00062
  24        3PZ         0.00000   0.00000  -0.00000   0.00042
  25 4   H  1S         -0.00574   0.00022   0.00027   0.00017   0.35125
  26        2S          0.64167  -0.00005   0.00015   0.00025   0.14043
  27        3PX         0.00039   0.00001   0.00002  -0.00000   0.00000
  28        3PY         0.00013   0.00003   0.00001   0.00000   0.00000
  29        3PZ        -0.00017   0.00001   0.00001   0.00000   0.00000
  30 5   H  1S         -0.00574  -0.00002   0.00034   0.00034  -0.00183
  31        2S          0.64167  -0.00019   0.00022   0.00033  -0.00574
  32        3PX         0.00029   0.00000   0.00000   0.00000   0.00008
  33        3PY         0.00012   0.00001   0.00001   0.00002  -0.00002
  34        3PZ        -0.00006   0.00001   0.00003   0.00001   0.00060
                          26        27        28        29        30
  26        2S          1.40626
  27        3PX         0.00000   0.00046
  28        3PY         0.00000   0.00000   0.00064
  29        3PZ         0.00000  -0.00000   0.00000   0.00098
  30 5   H  1S         -0.00574   0.00006   0.00002   0.00059   0.35126
  31        2S          0.64167   0.00001   0.00004   0.00030   0.14043
  32        3PX         0.00006   0.00000  -0.00000   0.00001   0.00000
  33        3PY        -0.00004   0.00000   0.00000   0.00000   0.00000
  34        3PZ         0.00033   0.00001  -0.00000   0.00007   0.00000
                          31        32        33        34
  31        2S          1.40626
  32        3PX         0.00000   0.00040
  33        3PY         0.00000  -0.00000   0.00075
  34        3PZ         0.00000  -0.00000  -0.00000   0.00094
     Gross orbital populations:
                         Total     Alpha     Beta      Spin
   1 1   C  1S          1.98555   0.99345   0.99210   0.00135
   2        2S          0.90445   0.47847   0.42598   0.05249
   3        3S         -0.61343  -0.67926   0.06583  -0.74509
   4        4PX         0.68861   0.34407   0.34454  -0.00048
   5        4PY         0.68861   0.34407   0.34455  -0.00048
   6        4PZ         0.68861   0.34407   0.34455  -0.00048
   7        5PX         0.27007   0.12624   0.14383  -0.01760
   8        5PY         0.27007   0.12624   0.14383  -0.01760
   9        5PZ         0.27007   0.12624   0.14384  -0.01760
  10        6D 0        0.00340   0.00169   0.00171  -0.00002
  11        6D+1        0.00269   0.00134   0.00136  -0.00002
  12        6D-1        0.00714   0.00355   0.00359  -0.00005
  13        6D+2        0.00138   0.00069   0.00070  -0.00001
  14        6D-2        0.00693   0.00344   0.00349  -0.00005
  15 2   H  1S          0.72684   0.36106   0.36578  -0.00473
  16        2S          0.70475   0.57298   0.13177   0.44121
  17        3PX         0.00995   0.00495   0.00500  -0.00005
  18        3PY         0.00906   0.00451   0.00455  -0.00004
  19        3PZ         0.00586   0.00294   0.00292   0.00001
  20 3   H  1S          0.72684   0.36106   0.36578  -0.00473
  21        2S          0.70475   0.57298   0.13177   0.44121
  22        3PX         0.01161   0.00576   0.00584  -0.00008
  23        3PY         0.00754   0.00376   0.00378  -0.00001
  24        3PZ         0.00572   0.00287   0.00285   0.00002
  25 4   H  1S          0.72684   0.36106   0.36578  -0.00473
  26        2S          0.70475   0.57298   0.13177   0.44121
  27        3PX         0.00608   0.00305   0.00304   0.00001
  28        3PY         0.00778   0.00388   0.00390  -0.00002
  29        3PZ         0.01100   0.00547   0.00554  -0.00007
  30 5   H  1S          0.72684   0.36106   0.36578  -0.00473
  31        2S          0.70475   0.57298   0.13177   0.44121
  32        3PX         0.00552   0.00277   0.00275   0.00002
  33        3PY         0.00877   0.00437   0.00440  -0.00003
  34        3PZ         0.01058   0.00526   0.00532  -0.00006
          Condensed to atoms (all electrons):
               1          2          3          4          5
     1  C   15.075989  -2.475454  -2.475454  -2.475458  -2.475459
     2  H   -2.475454   2.040460   0.630482   0.630485   0.630484
     3  H   -2.475454   0.630482   2.040461   0.630484   0.630485
     4  H   -2.475458   0.630485   0.630484   2.040462   0.630487
     5  H   -2.475459   0.630484   0.630485   0.630487   2.040462
          Atomic-Atomic Spin Densities.
               1          2          3          4          5
     1  C   10.781997  -2.881905  -2.881905  -2.881909  -2.881910
     2  H   -2.881905   1.343977   0.658110   0.658113   0.658112
     3  H   -2.881905   0.658110   1.343978   0.658111   0.658113
     4  H   -2.881909   0.658113   0.658111   1.343977   0.658115
     5  H   -2.881910   0.658112   0.658113   0.658115   1.343977
 Mulliken charges and spin densities:
               1          2
     1  C    0.825836  -0.745631
     2  H   -0.456459   0.436408
     3  H   -0.456459   0.436408
     4  H   -0.456460   0.436408
     5  H   -0.456459   0.436407
 Sum of Mulliken charges =  -1.00000   1.00000
 Mulliken charges and spin densities with hydrogens summed into heavy atoms:
               1          2
     1  C   -1.000000   1.000000
 Electronic spatial extent (au):  <R**2>=             54.1175
 Charge=             -1.0000 electrons
 Dipole moment (field-independent basis, Debye):
    X=              0.0000    Y=              0.0000    Z=             -0.0000  Tot=              0.0000
 Quadrupole moment (field-independent basis, Debye-Ang):
   XX=            -16.7633   YY=            -16.7633   ZZ=            -16.7633
   XY=             -0.0000   XZ=             -0.0000   YZ=              0.0000
 Traceless Quadrupole moment (field-independent basis, Debye-Ang):
   XX=             -0.0000   YY=             -0.0000   ZZ=              0.0000
   XY=             -0.0000   XZ=             -0.0000   YZ=              0.0000
 Octapole moment (field-independent basis, Debye-Ang**2):
  XXX=             -0.6884  YYY=             -0.0371  ZZZ=             -0.1763  XYY=              0.3682
[...]
                                                     27(v),10(g)
    5. BD ( 1) C  1- H  4       0.90469    -0.08734  7(g),8(g),27(g),31(v),19(v)
                                                     23(v),10(g)
    6. BD ( 1) C  1- H  5       0.97670    -0.19547  31(g),7(g),8(g),9(g)
 ------ non-Lewis ----------------------------------
    7. BD*( 1) C  1- H  2       0.06005     0.70338
    8. BD*( 1) C  1- H  3       0.06005     0.70338
    9. BD*( 1) C  1- H  4       0.06005     0.70338
   10. BD*( 1) C  1- H  5       0.05720     0.75514
   11. RY ( 2) C  1             0.00000     1.12449
   12. RY ( 3) C  1             0.00000     1.30164
   13. RY ( 4) C  1             0.00000     1.41151
   14. RY ( 5) C  1             0.00000     2.34153
   15. RY ( 6) C  1             0.00000     2.19095
   16. RY ( 7) C  1             0.00000     1.89220
   17. RY ( 8) C  1             0.00000     2.26100
   18. RY ( 9) C  1             0.00000     2.21897
   19. RY ( 1) H  2             0.14407     0.52060
   20. RY ( 2) H  2             0.00007     1.96528
   21. RY ( 3) H  2             0.00007     1.96528
   22. RY ( 4) H  2             0.00003     2.67996
   23. RY ( 1) H  3             0.14407     0.52060
   24. RY ( 2) H  3             0.00007     1.96528
   25. RY ( 3) H  3             0.00007     1.96528
   26. RY ( 4) H  3             0.00003     2.67996
   27. RY ( 1) H  4             0.14407     0.52060
   28. RY ( 2) H  4             0.00007     1.96528
   29. RY ( 3) H  4             0.00007     1.96528
   30. RY ( 4) H  4             0.00003     2.67996
   31. RY ( 1) H  5             0.18716     0.44672
   32. RY ( 2) H  5             0.00008     2.67385
   33. RY ( 3) H  5             0.00007     1.96528
   34. RY ( 4) H  5             0.00007     1.96528
          -------------------------------
                 Total Lewis    5.14256  ( 85.7094%)
           Valence non-Lewis    0.23735  (  3.9559%)
           Rydberg non-Lewis    0.62009  ( 10.3348%)
          -------------------------------
               Total unit  1    6.00000  (100.0000%)
              Charge unit  1   -1.00000


 ***************************************************
 *******         Beta  spin orbitals         *******
 ***************************************************


 NATURAL POPULATIONS:  Natural atomic orbital occupancies

  NAO Atom No lang   Type(AO)    Occupancy      Energy
 -------------------------------------------------------
   1    C  1  s      Cor( 1s)     0.99996      -9.90237
   2    C  1  s      Val( 2s)     0.56255       0.06806
   3    C  1  s      Ryd( 3s)     0.00099       0.96350
   4    C  1  px     Val( 2p)     0.60087       0.18928
   5    C  1  px     Ryd( 3p)     0.00001       0.78658
   6    C  1  py     Val( 2p)     0.60087       0.18928
   7    C  1  py     Ryd( 3p)     0.00001       0.78658
   8    C  1  pz     Val( 2p)     0.60087       0.18928
   9    C  1  pz     Ryd( 3p)     0.00001       0.78658
  10    C  1  dxy    Ryd( 3d)     0.00041       2.63573
  11    C  1  dxz    Ryd( 3d)     0.00016       2.40413
  12    C  1  dyz    Ryd( 3d)     0.00042       2.64726
  13    C  1  dx2y2  Ryd( 3d)     0.00008       2.33249
  14    C  1  dz2    Ryd( 3d)     0.00020       2.44252

  15    H  2  s      Val( 1s)     0.40064       0.27337
  16    H  2  s      Ryd( 2s)     0.00697       0.57820
  17    H  2  px     Ryd( 2p)     0.00024       2.34081
  18    H  2  py     Ryd( 2p)     0.00020       2.27215
  19    H  2  pz     Ryd( 2p)     0.00009       2.02413

  20    H  3  s      Val( 1s)     0.40064       0.27337
  21    H  3  s      Ryd( 2s)     0.00697       0.57820
  22    H  3  px     Ryd( 2p)     0.00029       2.46949
  23    H  3  py     Ryd( 2p)     0.00015       2.15463
  24    H  3  pz     Ryd( 2p)     0.00009       2.01296

  25    H  4  s      Val( 1s)     0.40064       0.27337
  26    H  4  s      Ryd( 2s)     0.00697       0.57820
  27    H  4  px     Ryd( 2p)     0.00010       2.04126
  28    H  4  py     Ryd( 2p)     0.00016       2.17320
  29    H  4  pz     Ryd( 2p)     0.00027       2.42262

  30    H  5  s      Val( 1s)     0.40065       0.27337
  31    H  5  s      Ryd( 2s)     0.00697       0.57820
  32    H  5  px     Ryd( 2p)     0.00008       1.99789
  33    H  5  py     Ryd( 2p)     0.00019       2.24946
  34    H  5  pz     Ryd( 2p)     0.00026       2.38974

     Population inversion found on atom  C  1
     Population inversion found on atom  H  2
     Population inversion found on atom  H  3
     Population inversion found on atom  H  4
     Population inversion found on atom  H  5


 Summary of Natural Population Analysis:

                                     Natural Population
             Natural    ---------------------------------------------
  Atom No    Charge        Core      Valence    Rydberg      Total
 --------------------------------------------------------------------
    C  1   -0.36740      0.99996     2.36516    0.00229     3.36740
    H  2    0.09185      0.00000     0.40064    0.00750     0.40815
    H  3    0.09185      0.00000     0.40064    0.00750     0.40815
    H  4    0.09185      0.00000     0.40064    0.00750     0.40815
    H  5    0.09185      0.00000     0.40065    0.00750     0.40815
 ====================================================================
 * Total *  0.00000      0.99996     3.96774    0.03230     5.00000

                                 Natural Population
 ---------------------------------------------------------
   Core                       0.99996 ( 99.9957% of    1)
   Valence                    3.96774 ( 99.1934% of    4)
   Natural Minimal Basis      4.96770 ( 99.3539% of    5)
   Natural Rydberg Basis      0.03230 (  0.6461% of    5)
 ---------------------------------------------------------

    Atom No         Natural Electron Configuration
 ----------------------------------------------------------------------------
      C  1      [core]2s( 0.56)2p( 1.80)
      H  2            1s( 0.40)2s( 0.01)
      H  3            1s( 0.40)2s( 0.01)
      H  4            1s( 0.40)2s( 0.01)
      H  5            1s( 0.40)2s( 0.01)


 Wiberg bond index matrix in the NAO basis:

     Atom    1       2       3       4       5
     ---- ------  ------  ------  ------  ------
   1.  C  0.0000  0.4826  0.4826  0.4826  0.4826
   2.  H  0.4826  0.0000  0.0003  0.0003  0.0003
   3.  H  0.4826  0.0003  0.0000  0.0003  0.0003
   4.  H  0.4826  0.0003  0.0003  0.0000  0.0003
   5.  H  0.4826  0.0003  0.0003  0.0003  0.0000


 Wiberg bond index, Totals by atom:

     Atom    1
     ---- ------
   1.  C  1.9304
   2.  H  0.4834
   3.  H  0.4834
   4.  H  0.4834
   5.  H  0.4834


 NBI: Natural Binding Index (NCU strength parameters)

     Atom    1       2       3       4       5
     ---- ------  ------  ------  ------  ------
   1.  C  0.0000  0.4912  0.4912  0.4912  0.4912
   2.  H  0.4912  0.0000  0.0115  0.0115  0.0115
   3.  H  0.4912  0.0115  0.0000  0.0115  0.0115
   4.  H  0.4912  0.0115  0.0115  0.0000  0.0115
   5.  H  0.4912  0.0115  0.0115  0.0115  0.0000


 NATURAL BOND ORBITAL ANALYSIS, beta spin orbitals:

                            Occupancies       Lewis Structure    Low   High
         Max    Occ     -------------------  -----------------   occ   occ
  Cycle  Ctr   Thresh    Lewis   non-Lewis     CR  BD  nC  LP    (L)   (NL)
 ============================================================================
    1     2     0.95     4.99821   0.00179      1   4   0   0     0      0
 ----------------------------------------------------------------------------

 Structure accepted: No low occupancy Lewis orbitals

 -------------------------------------------------------
   Core                      0.99996 ( 99.996% of   1)
   Valence Lewis             3.99826 ( 99.956% of   4)
  ==================      =============================
   Total Lewis               4.99821 ( 99.964% of   5)
  -----------------------------------------------------
   Valence non-Lewis         0.00111 (  0.022% of   5)
   Rydberg non-Lewis         0.00068 (  0.014% of   5)
  ==================      =============================
   Total non-Lewis           0.00179 (  0.036% of   5)
 -------------------------------------------------------


     (Occupancy)   Bond orbital / Coefficients / Hybrids
 ------------------ Lewis ------------------------------------------------------
   1. (0.99996) CR ( 1) C  1            s(100.00%)
                                         1.0000  0.0000  0.0000  0.0000  0.0000
                                         0.0000  0.0000  0.0000  0.0000  0.0000
                                         0.0000  0.0000  0.0000  0.0000
   2. (0.99956) BD ( 1) C  1- H  2
               ( 59.20%)   0.7694* C  1 s( 25.00%)p 3.00( 74.95%)d 0.00(  0.05%)
                                         0.0000  0.4996  0.0209 -0.6173  0.0019
                                         0.5576 -0.0017 -0.2399  0.0007 -0.0183
                                         0.0079 -0.0071  0.0019 -0.0089
               ( 40.80%)   0.6387* H  2 s( 99.91%)p 0.00(  0.09%)
                                         0.9910 -0.1306  0.0213 -0.0192  0.0083
   3. (0.99956) BD ( 1) C  1- H  3
               ( 59.20%)   0.7694* C  1 s( 25.00%)p 3.00( 74.95%)d 0.00(  0.05%)
                                         0.0000  0.4996  0.0209  0.7159 -0.0021
                                         0.4369 -0.0013  0.2148 -0.0006  0.0167
                                         0.0082  0.0050  0.0086 -0.0094
               ( 40.80%)   0.6387* H  3 s( 99.91%)p 0.00(  0.09%)
                                         0.9910 -0.1306 -0.0247 -0.0151 -0.0074
   4. (0.99956) BD ( 1) C  1- H  4
               ( 59.20%)   0.7694* C  1 s( 25.00%)p 3.00( 74.95%)d 0.00(  0.05%)
                                         0.0000  0.4996  0.0209 -0.2739  0.0008
                                        -0.4581  0.0014  0.6816 -0.0020  0.0067
                                        -0.0099 -0.0166 -0.0036  0.0099
               ( 40.80%)   0.6387* H  4 s( 99.91%)p 0.00(  0.09%)
                                         0.9910 -0.1306  0.0094  0.0158 -0.0235
   5. (0.99956) BD ( 1) C  1- H  5
               ( 59.20%)   0.7694* C  1 s( 25.00%)p 3.00( 74.95%)d 0.00(  0.05%)
                                         0.0000  0.4996  0.0209  0.1753 -0.0005
                                        -0.5364  0.0016 -0.6565  0.0020 -0.0050
                                        -0.0061  0.0188 -0.0068  0.0084
               ( 40.80%)   0.6387* H  5 s( 99.91%)p 0.00(  0.09%)
                                         0.9910 -0.1306 -0.0060  0.0185  0.0226
 ---------------- non-Lewis ----------------------------------------------------
   6. (0.00028) BD*( 1) C  1- H  2
               ( 40.80%)   0.6387* C  1 s( 25.00%)p 3.00( 74.95%)d 0.00(  0.05%)
                                         0.0000 -0.4996 -0.0209  0.6173 -0.0019
                                        -0.5576  0.0017  0.2399 -0.0007  0.0183
                                        -0.0079  0.0071 -0.0019  0.0089
               ( 59.20%)  -0.7694* H  2 s( 99.91%)p 0.00(  0.09%)
                                        -0.9910  0.1306 -0.0213  0.0192 -0.0083
   7. (0.00028) BD*( 1) C  1- H  3
               ( 40.80%)   0.6387* C  1 s( 25.00%)p 3.00( 74.95%)d 0.00(  0.05%)
                                         0.0000 -0.4996 -0.0209 -0.7159  0.0021
                                        -0.4369  0.0013 -0.2148  0.0006 -0.0167
                                        -0.0082 -0.0050 -0.0086  0.0094
               ( 59.20%)  -0.7694* H  3 s( 99.91%)p 0.00(  0.09%)
                                        -0.9910  0.1306  0.0247  0.0151  0.0074
   8. (0.00028) BD*( 1) C  1- H  4
               ( 40.80%)   0.6387* C  1 s( 25.00%)p 3.00( 74.95%)d 0.00(  0.05%)
                                         0.0000 -0.4996 -0.0209  0.2739 -0.0008
                                         0.4581 -0.0014 -0.6816  0.0020 -0.0067
                                         0.0099  0.0166  0.0036 -0.0099
               ( 59.20%)  -0.7694* H  4 s( 99.91%)p 0.00(  0.09%)
                                        -0.9910  0.1306 -0.0094 -0.0158  0.0235
   9. (0.00028) BD*( 1) C  1- H  5
               ( 40.80%)   0.6387* C  1 s( 25.00%)p 3.00( 74.95%)d 0.00(  0.05%)
                                         0.0000 -0.4996 -0.0209 -0.1753  0.0005
                                         0.5364 -0.0016  0.6565 -0.0020  0.0050
                                         0.0061 -0.0188  0.0068 -0.0084
               ( 59.20%)  -0.7694* H  5 s( 99.91%)p 0.00(  0.09%)
                                        -0.9910  0.1306  0.0060 -0.0185 -0.0226
  10. (0.00001) RY ( 1) C  1            s(100.00%)p 0.00(  0.00%)d 0.00(  0.00%)
  11. (0.00000) RY ( 2) C  1            s(  0.00%)p 1.00(100.00%)d 0.00(  0.00%)
  12. (0.00000) RY ( 3) C  1            s(  0.00%)p 1.00(100.00%)d 0.00(  0.00%)
  13. (0.00000) RY ( 4) C  1            s(  0.00%)p 1.00(100.00%)d 0.00(  0.00%)
  14. (0.00000) RY ( 5) C  1            s(  0.00%)p 1.00(  0.07%)d99.99( 99.93%)
  15. (0.00000) RY ( 6) C  1            s(  0.00%)p 1.00(  0.03%)d99.99( 99.97%)
  16. (0.00000) RY ( 7) C  1            s(  0.00%)p 1.00(  0.07%)d99.99( 99.93%)
  17. (0.00000) RY ( 8) C  1            s(  0.00%)p 1.00(  0.01%)d99.99( 99.99%)
  18. (0.00000) RY ( 9) C  1            s(  0.00%)p 1.00(  0.03%)d99.99( 99.97%)
  19. (0.00007) RY ( 1) H  2            s(  0.00%)p 1.00(100.00%)
  20. (0.00007) RY ( 2) H  2            s(  0.00%)p 1.00(100.00%)
  21. (0.00003) RY ( 3) H  2            s( 16.64%)p 5.01( 83.36%)
  22. (0.00000) RY ( 4) H  2            s( 83.45%)p 0.20( 16.55%)
  23. (0.00007) RY ( 1) H  3            s(  0.00%)p 1.00(100.00%)
  24. (0.00007) RY ( 2) H  3            s(  0.00%)p 1.00(100.00%)
  25. (0.00003) RY ( 3) H  3            s( 16.64%)p 5.01( 83.36%)
  26. (0.00000) RY ( 4) H  3            s( 83.45%)p 0.20( 16.55%)
  27. (0.00007) RY ( 1) H  4            s(  0.00%)p 1.00(100.00%)
  28. (0.00007) RY ( 2) H  4            s(  0.00%)p 1.00(100.00%)
  29. (0.00003) RY ( 3) H  4            s( 16.64%)p 5.01( 83.36%)
  30. (0.00000) RY ( 4) H  4            s( 83.44%)p 0.20( 16.56%)
  31. (0.00007) RY ( 1) H  5            s(  0.00%)p 1.00(100.00%)
  32. (0.00007) RY ( 2) H  5            s(  0.00%)p 1.00(100.00%)
  33. (0.00003) RY ( 3) H  5            s( 16.64%)p 5.01( 83.36%)
  34. (0.00000) RY ( 4) H  5            s( 83.45%)p 0.20( 16.55%)


 NHO DIRECTIONALITY AND BOND BENDING (deviation from line of nuclear centers at
                                      the position of maximum hybrid amplitude)

         [Thresholds for printing:  angular deviation  >  1.0 degree]
                                    p- or d-character  > 25.0%
                                    orbital occupancy  >  0.10e

                        Line of Centers        Hybrid 1             Hybrid 2
                        ---------------  -------------------  ------------------
           NBO            Theta   Phi    Theta   Phi    Dev   Theta   Phi    Dev
 ===============================================================================
    None exceeding thresholds


 SECOND ORDER PERTURBATION THEORY ANALYSIS OF FOCK MATRIX IN NBO BASIS

     Threshold for printing:   0.25 kcal/mol
                                                          E(2) E(NL)-E(L) F(L,NL)
      Donor (L) NBO              Acceptor (NL) NBO      kcal/mol   a.u.    a.u.
 ===============================================================================

 within unit  1
       None above threshold


 NATURAL BOND ORBITALS (Summary):

                                                     Principal Delocalizations
           NBO                 Occupancy    Energy   (geminal,vicinal,remote)
 ===============================================================================
 Molecular unit  1  (CH4)
 ------ Lewis --------------------------------------
    1. CR ( 1) C  1             0.99996    -9.90237
    2. BD ( 1) C  1- H  2       0.99956    -0.21840
    3. BD ( 1) C  1- H  3       0.99956    -0.21840
    4. BD ( 1) C  1- H  4       0.99956    -0.21840
    5. BD ( 1) C  1- H  5       0.99956    -0.21840
 ------ non-Lewis ----------------------------------
    6. BD*( 1) C  1- H  2       0.00028     0.70598
    7. BD*( 1) C  1- H  3       0.00028     0.70598
    8. BD*( 1) C  1- H  4       0.00028     0.70598
    9. BD*( 1) C  1- H  5       0.00028     0.70598
   10. RY ( 1) C  1             0.00001     0.96427
   11. RY ( 2) C  1             0.00000     0.78726
   12. RY ( 3) C  1             0.00000     0.78726
   13. RY ( 4) C  1             0.00000     0.78726
   14. RY ( 5) C  1             0.00000     2.63060
   15. RY ( 6) C  1             0.00000     2.40210
   16. RY ( 7) C  1             0.00000     2.64196
   17. RY ( 8) C  1             0.00000     2.33142
   18. RY ( 9) C  1             0.00000     2.44006
   19. RY ( 1) H  2             0.00007     1.96780
   20. RY ( 2) H  2             0.00007     1.96780
   21. RY ( 3) H  2             0.00003     2.41067
   22. RY ( 4) H  2             0.00000     0.81707
   23. RY ( 1) H  3             0.00007     1.96780
   24. RY ( 2) H  3             0.00007     1.96780
   25. RY ( 3) H  3             0.00003     2.41068
   26. RY ( 4) H  3             0.00000     0.81706
   27. RY ( 1) H  4             0.00007     1.96780
   28. RY ( 2) H  4             0.00007     1.96780
   29. RY ( 3) H  4             0.00003     2.41061
   30. RY ( 4) H  4             0.00000     0.81713
   31. RY ( 1) H  5             0.00007     1.96780
   32. RY ( 2) H  5             0.00007     1.96780
   33. RY ( 3) H  5             0.00003     2.41064
   34. RY ( 4) H  5             0.00000     0.81710
          -------------------------------
                 Total Lewis    4.99821  ( 99.9643%)
           Valence non-Lewis    0.00111  (  0.0221%)
           Rydberg non-Lewis    0.00068  (  0.0136%)
          -------------------------------
               Total unit  1    5.00000  (100.0000%)
              Charge unit  1    0.00000

 $CHOOSE
  ALPHA
   LONE 1 1 END
   BOND S 1 2 S 1 3 S 1 4 S 1 5 END
  END
  BETA
   BOND S 1 2 S 1 3 S 1 4 S 1 5 END
  END
 $END

 Maximum scratch memory used by NBO was 292591 words (2.23 MB)
 Maximum scratch memory used by G16NBO was 16523 words (0.13 MB)

 Opening RunExU unformatted file "/scratch/yanfeig/Gau-34442.EUF"
 Read unf file /scratch/yanfeig/Gau-34442.EUF:
 Label Gaussian matrix elements                                         IVers= 1 NLab= 2 Version=EM64L-G16RevB.01
 Title None                                                            
 NAtoms=     5 NBasis=    34 NBsUse=    34 ICharg=    -1 Multip=     2 NE=    11 Len12L=8 Len4L=8 IOpCl= 0 ICGU= -1
 GAUSSIAN SCALARS                    NI= 1 NR= 1 NTot=       1 LenBuf=    2 NRI=1 N=    1000
 NPA CHARGES                         NI= 0 NR= 1 NTot=       5 LenBuf=  256 NRI=1 N=       5
 Recovered energy= -40.3414801285     dipole=      0.000001216818      0.000001823700     -0.000005888229
 1\1\GINC-NODE70\SP\ROB3LYP\def2SVP\C1H4(1-,2)\YANFEIG\03-Feb-2020\0\\#
  b3lyp/def2svp scf=(maxcycle=512, xqc) pop=(full,mbs,hirshfeld,nbo6rea
 d)\\None\\-1,2\C,0,0.,0.,0.\H,0,-0.64458,-0.76718,-0.40871\H,0,-0.3460
 9,0.97258,-0.32466\H,0,-0.0221,-0.04843,1.08086\H,0,1.01277,-0.15697,-
 0.34748\\Version=EM64L-G16RevB.01\State=2-A\HF=-40.3414801\RMSD=1.437e
 -09\Dipole=0.0000016,-0.0000009,-0.000006\Quadrupole=0.000008,-0.00001
 73,0.0000092,-0.0000093,-0.0000091,0.0000137\PG=C01 [X(C1H4)]\\@


 THE GREAT THING ABOUT BEING IMPERFECT IS THE JOY IT BRINGS OTHERS.
   -- SIGN OUTSIDE LAKE AGASSIZ JR. HIGH SCHOOL, FARGO, N.D.
 Job cpu time:       0 days  0 hours  1 minutes  8.4 seconds.
 Elapsed time:       0 days  0 hours  0 minutes  3.6 seconds.
 File lengths (MBytes):  RWF=      6 Int=      0 D2E=      0 Chk=      1 Scr=      1
 Normal termination of Gaussian 16 at Mon Feb  3 15:17:47 2020.
