 Entering Gaussian System, Link 0=/opt/g16/g16
 Initial command:
 /opt/g16/l1.exe "/scratch/yanfeig/Gau-35247.inp" -scrdir="/scratch/yanfeig/"
 Entering Link 1 = /opt/g16/l1.exe PID=     35249.
  
 Copyright (c) 1988-2017, Gaussian, Inc.  All Rights Reserved.
  
 This is part of the Gaussian(R) 16 program.  It is based on
 the Gaussian(R) 09 system (copyright 2009, Gaussian, Inc.),
 the Gaussian(R) 03 system (copyright 2003, Gaussian, Inc.),
 the Gaussian(R) 98 system (copyright 1998, Gaussian, Inc.),
 the Gaussian(R) 94 system (copyright 1995, Gaussian, Inc.),
 the Gaussian 92(TM) system (copyright 1992, Gaussian, Inc.),
 the Gaussian 90(TM) system (copyright 1990, Gaussian, Inc.),
 the Gaussian 88(TM) system (copyright 1988, Gaussian, Inc.),
 the Gaussian 86(TM) system (copyright 1986, Carnegie Mellon
 University), and the Gaussian 82(TM) system (copyright 1983,
 Carnegie Mellon University). Gaussian is a federally registered
 trademark of Gaussian, Inc.
  
 This software contains proprietary and confidential information,
 including trade secrets, belonging to Gaussian, Inc.
  
 This software is provided under written license and may be
 used, copied, transmitted, or stored only in accord with that
 written license.
  
 The following legend is applicable only to US Government
 contracts under FAR:
  
                    RESTRICTED RIGHTS LEGEND
  
 Use, reproduction and disclosure by the US Government is
 subject to restrictions as set forth in subparagraphs (a)
 and (c) of the Commercial Computer Software - Restricted
 Rights clause in FAR 52.227-19.
  
 Gaussian, Inc.
 340 Quinnipiac St., Bldg. 40, Wallingford CT 06492
  
  
 ---------------------------------------------------------------
 Warning -- This program may not be used in any manner that
 competes with the business of Gaussian, Inc. or will provide
 assistance to any competitor of Gaussian, Inc.  The licensee
 of this program is prohibited from giving any competitor of
 Gaussian, Inc. access to this program.  By using this program,
 the user acknowledges that Gaussian, Inc. is engaged in the
 business of creating and licensing software in the field of
 computational chemistry and represents and warrants to the
 licensee that it is not a competitor of Gaussian, Inc. and that
 it will not use this program in any manner prohibited above.
 ---------------------------------------------------------------
  

 Cite this work as:
 Gaussian 16, Revision B.01,
 M. J. Frisch, G. W. Trucks, H. B. Schlegel, G. E. Scuseria, 
 M. A. Robb, J. R. Cheeseman, G. Scalmani, V. Barone, 
 G. A. Petersson, H. Nakatsuji, X. Li, M. Caricato, A. V. Marenich, 
 J. Bloino, B. G. Janesko, R. Gomperts, B. Mennucci, H. P. Hratchian, 
 J. V. Ortiz, A. F. Izmaylov, J. L. Sonnenberg, D. Williams-Young, 
 F. Ding, F. Lipparini, F. Egidi, J. Goings, B. Peng, A. Petrone, 
 T. Henderson, D. Ranasinghe, V. G. Zakrzewski, J. Gao, N. Rega, 
 G. Zheng, W. Liang, M. Hada, M. Ehara, K. Toyota, R. Fukuda, 
 J. Hasegawa, M. Ishida, T. Nakajima, Y. Honda, O. Kitao, H. Nakai, 
 T. Vreven, K. Throssell, J. A. Montgomery, Jr., J. E. Peralta, 
 F. Ogliaro, M. J. Bearpark, J. J. Heyd, E. N. Brothers, K. N. Kudin, 
 V. N. Staroverov, T. A. Keith, R. Kobayashi, J. Normand, 
 K. Raghavachari, A. P. Rendell, J. C. Burant, S. S. Iyengar, 
 J. Tomasi, M. Cossi, J. M. Millam, M. Klene, C. Adamo, R. Cammi, 
 J. W. Ochterski, R. L. Martin, K. Morokuma, O. Farkas, 
 J. B. Foresman, and D. J. Fox, Gaussian, Inc., Wallingford CT, 2016.
 
 ******************************************
 Gaussian 16:  EM64L-G16RevB.01 20-Dec-2017
                 3-Feb-2020 
 ******************************************
 %chk=CHEMBL1521196_opt.chk
 %nprocshared=20
 Will use up to   20 processors via shared memory.
 ----------------------------------------------------------------------
 # b3lyp/def2svp scf=(maxcycle=512, xqc) pop=(full,mbs,hirshfeld,nbo6re
 ad)
 ----------------------------------------------------------------------
 1/38=1,163=2,172=1/1;
 2/12=2,17=6,18=5,40=1/2;
 3/5=43,7=101,11=2,25=1,30=1,74=-5/1,2,3;
 4//1;
 5/5=2,7=512,8=3,13=1,38=5/2,8;
 6/7=3,27=100,28=1,40=2,79=1,113=1,114=1,124=2103/1,12;
 99/5=1,9=1/99;
 ----
 None
 ----
 Symbolic Z-matrix:
 Charge = -1 Multiplicity = 2
 C                    -1.2127    0.65594  -0.12732 
 C                    -1.18234  -0.72019   0.02249 
 C                     0.03036  -1.37613   0.14981 
 C                     1.2127   -0.65594   0.12732 
 C                     1.18234   0.72019  -0.02249 
 C                    -0.03036   1.37613  -0.14981 
 H                    -2.15902   1.16779  -0.2267 
 H                    -2.10496  -1.28219   0.04 
 H                     0.05405  -2.44998   0.2667 
 H                     2.15902  -1.16779   0.2267 
 H                     2.10496   1.28219  -0.04 
 H                    -0.05405   2.44998  -0.2667 
 
                          Input orientation:                          
 ---------------------------------------------------------------------
 Center     Atomic      Atomic             Coordinates (Angstroms)
 Number     Number       Type             X           Y           Z
 ---------------------------------------------------------------------
      1          6           0       -1.212700    0.655940   -0.127320
      2          6           0       -1.182340   -0.720190    0.022490
      3          6           0        0.030360   -1.376130    0.149810
      4          6           0        1.212700   -0.655940    0.127320
      5          6           0        1.182340    0.720190   -0.022490
      6          6           0       -0.030360    1.376130   -0.149810
      7          1           0       -2.159020    1.167790   -0.226700
      8          1           0       -2.104960   -1.282190    0.040000
      9          1           0        0.054050   -2.449980    0.266700
     10          1           0        2.159020   -1.167790    0.226700
     11          1           0        2.104960    1.282190   -0.040000
     12          1           0       -0.054050    2.449980   -0.266700
 ---------------------------------------------------------------------
                    Distance matrix (angstroms):
                    1          2          3          4          5
     1  C    0.000000
     2  C    1.384593   0.000000
     3  C    2.398188   1.384597   0.000000
     4  C    2.769194   2.398194   1.384596   0.000000
     5  C    2.398194   2.769193   2.398187   1.384593   0.000000
     6  C    1.384596   2.398187   2.769187   2.398188   1.384597
     7  H    1.080457   2.140203   3.377377   3.849652   3.377386
     8  H    2.140204   1.080453   2.140204   3.377378   3.849646
     9  H    3.377373   2.140204   1.080453   2.140205   3.377373
    10  H    3.849652   3.377386   2.140213   1.080457   2.140203
    11  H    3.377378   3.849646   3.377374   2.140204   1.080453
    12  H    2.140205   3.377373   3.849639   3.377373   2.140204
                    6          7          8          9         10
     6  C    0.000000
     7  H    2.140213   0.000000
     8  H    3.377374   2.465046   0.000000
     9  H    3.849639   4.269588   2.465046   0.000000
    10  H    3.377377   4.930109   4.269598   2.465058   0.000000
    11  H    2.140204   4.269598   4.930098   4.269589   2.465046
    12  H    1.080453   2.465058   4.269589   4.930092   4.269588
                   11         12
    11  H    0.000000
    12  H    2.465046   0.000000
 Stoichiometry    C6H6(1-,2)
 Framework group  CI[X(C6H6)]
 Deg. of freedom    15
 Full point group                 CI      NOp   2
 Largest Abelian subgroup         CI      NOp   2
 Largest concise Abelian subgroup CI      NOp   2
                         Standard orientation:                         
 ---------------------------------------------------------------------
 Center     Atomic      Atomic             Coordinates (Angstroms)
 Number     Number       Type             X           Y           Z
 ---------------------------------------------------------------------
      1          6           0       -1.212700    0.655940   -0.127320
      2          6           0       -1.182340   -0.720190    0.022490
      3          6           0        0.030360   -1.376130    0.149810
      4          6           0        1.212700   -0.655940    0.127320
      5          6           0        1.182340    0.720190   -0.022490
      6          6           0       -0.030360    1.376130   -0.149810
      7          1           0       -2.159020    1.167790   -0.226700
      8          1           0       -2.104960   -1.282190    0.040000
      9          1           0        0.054050   -2.449980    0.266700
     10          1           0        2.159020   -1.167790    0.226700
     11          1           0        2.104960    1.282190   -0.040000
     12          1           0       -0.054050    2.449980   -0.266700
 ---------------------------------------------------------------------
 Rotational constants (GHZ):           5.7831924           5.7831543           2.8915867
 Standard basis: def2SVP (5D, 7F)
 There are    60 symmetry adapted cartesian basis functions of AG  symmetry.
 There are    60 symmetry adapted cartesian basis functions of AU  symmetry.
 There are    57 symmetry adapted basis functions of AG  symmetry.
 There are    57 symmetry adapted basis functions of AU  symmetry.
   114 basis functions,   192 primitive gaussians,   120 cartesian basis functions
    22 alpha electrons       21 beta electrons
       nuclear repulsion energy       204.8705961574 Hartrees.
 NAtoms=   12 NActive=   12 NUniq=    6 SFac= 4.00D+00 NAtFMM=   60 NAOKFM=F Big=F
 Integral buffers will be    131072 words long.
 Raffenetti 2 integral format.
 Two-electron integral symmetry is turned on.
 One-electron integrals computed using PRISM.
   2 Symmetry operations used in ECPInt.
 ECPInt:  NShTT=    1485 NPrTT=    5349 LenC2=    1486 LenP2D=    4584.
 LDataN:  DoStor=T MaxTD1= 4 Len=   56
 NBasis=   114 RedAO= T EigKep=  2.95D-04  NBF=    57    57
 NBsUse=   114 1.00D-06 EigRej= -1.00D+00 NBFU=    57    57
 ExpMin= 1.22D-01 ExpMax= 1.24D+03 ExpMxC= 1.86D+02 IAcc=3 IRadAn=         5 AccDes= 0.00D+00
 Harris functional with IExCor=  402 and IRadAn=       5 diagonalized for initial guess.
 HarFok:  IExCor=  402 AccDes= 0.00D+00 IRadAn=         5 IDoV= 1 UseB2=F ITyADJ=14
 ICtDFT=  3500011 ScaDFX=  1.000000  1.000000  1.000000  1.000000
 FoFCou: FMM=F IPFlag=           0 FMFlag=      100000 FMFlg1=           0
         NFxFlg=           0 DoJE=T BraDBF=F KetDBF=T FulRan=T
         wScrn=  0.000000 ICntrl=       500 IOpCl=  0 I1Cent=   200000004 NGrid=           0
         NMat0=    1 NMatS0=      1 NMatT0=    0 NMatD0=    1 NMtDS0=    0 NMtDT0=    0
 Petite list used in FoFCou.
 Initial guess orbital symmetries:
 Alpha Orbitals:
       Occupied  (AG) (AU) (AU) (AU) (AG) (AG) (AG) (AU) (AU) (AG)
                 (AG) (AG) (AU) (AU) (AU) (AU) (AU) (AG) (AG) (AG)
                 (AG) (AU)
       Virtual   (AU) (AG) (AG) (AU) (AU) (AG) (AG) (AU) (AG) (AG)
                 (AU) (AU) (AG) (AU) (AG) (AU) (AU) (AU) (AU) (AG)
                 (AG) (AG) (AG) (AG) (AU) (AU) (AU) (AU) (AG) (AG)
                 (AG) (AU) (AG) (AG) (AG) (AU) (AU) (AU) (AG) (AU)
                 (AU) (AU) (AG) (AG) (AG) (AU) (AU) (AG) (AG) (AU)
                 (AG) (AU) (AG) (AG) (AU) (AU) (AU) (AU) (AG) (AG)
                 (AU) (AU) (AU) (AG) (AG) (AU) (AG) (AG) (AU) (AU)
                 (AG) (AU) (AG) (AG) (AG) (AG) (AU) (AU) (AG) (AG)
                 (AG) (AU) (AU) (AU) (AG) (AU) (AU) (AU) (AG) (AG)
                 (AG) (AU)
 Beta  Orbitals:
       Occupied  (AG) (AU) (AU) (AU) (AG) (AG) (AG) (AU) (AU) (AG)
                 (AG) (AG) (AU) (AU) (AU) (AU) (AU) (AG) (AG) (AG)
                 (AG)
       Virtual   (AU) (AU) (AG) (AG) (AU) (AU) (AG) (AG) (AU) (AG)
                 (AG) (AU) (AU) (AG) (AU) (AG) (AU) (AU) (AU) (AU)
                 (AG) (AG) (AG) (AG) (AG) (AU) (AU) (AU) (AU) (AG)
                 (AG) (AG) (AU) (AG) (AG) (AG) (AU) (AU) (AU) (AG)
                 (AU) (AU) (AU) (AG) (AG) (AG) (AU) (AU) (AG) (AG)
                 (AU) (AG) (AU) (AG) (AG) (AU) (AU) (AU) (AU) (AG)
                 (AG) (AU) (AU) (AU) (AG) (AG) (AU) (AG) (AG) (AU)
                 (AU) (AG) (AU) (AG) (AG) (AG) (AG) (AU) (AU) (AG)
                 (AG) (AG) (AU) (AU) (AU) (AG) (AU) (AU) (AU) (AG)
                 (AG) (AG) (AU)
 The electronic state of the initial guess is 2-AU.
 Initial guess <Sx>= 0.0000 <Sy>= 0.0000 <Sz>= 0.5000 <S**2>= 0.7500 S= 0.5000
 Keep R1 and R2 ints in memory in symmetry-blocked form, NReq=40455900.
 Requested convergence on RMS density matrix=1.00D-08 within 128 cycles.
 Requested convergence on MAX density matrix=1.00D-06.
 Requested convergence on             energy=1.00D-06.
 No special actions if energy rises.
 Integral accuracy reduced to 1.0D-05 until final iterations.
 Problem detected with inexpensive integrals.
 Switching to full accuracy and repeating last cycle.
 SCF Done:  E(UB3LYP) =  -232.008741016     A.U. after   34 cycles
            NFock= 34  Conv=0.25D-09     -V/T= 2.0090
 <Sx>= 0.0000 <Sy>= 0.0000 <Sz>= 0.5000 <S**2>= 0.7571 S= 0.5035
 <L.S>= 0.000000000000E+00
 Annihilation of the first spin contaminant:
 S**2 before annihilation     0.7571,   after     0.7500
 QCSCF skips out because SCF is already converged.

 **********************************************************************

            Population analysis using the SCF Density.

 **********************************************************************

 Orbital symmetries:
 Alpha Orbitals:
       Occupied  (AU) (AG) (AU) (AG) (AU) (AG) (AG) (AU) (AU) (AG)
                 (AG) (AG) (AU) (AU) (AU) (AU) (AU) (AG) (AG) (AG)
                 (AG) (AU)
       Virtual   (AU) (AG) (AU) (AU) (AG) (AG) (AU) (AG) (AG) (AG)
                 (AU) (AU) (AG) (AU) (AU) (AU) (AG) (AU) (AU) (AG)
                 (AG) (AG) (AG) (AG) (AU) (AU) (AU) (AU) (AG) (AG)
                 (AG) (AG) (AG) (AU) (AG) (AU) (AU) (AU) (AG) (AU)
                 (AU) (AU) (AG) (AG) (AG) (AG) (AG) (AU) (AU) (AU)
                 (AG) (AU) (AG) (AG) (AU) (AG) (AU) (AU) (AG) (AU)
                 (AU) (AU) (AU) (AG) (AG) (AG) (AU) (AG) (AG) (AU)
                 (AU) (AU) (AG) (AG) (AG) (AG) (AU) (AU) (AG) (AG)
                 (AG) (AU) (AU) (AG) (AU) (AU) (AU) (AU) (AG) (AG)
                 (AG) (AU)
 Beta  Orbitals:
       Occupied  (AU) (AG) (AU) (AG) (AU) (AG) (AG) (AU) (AU) (AG)
                 (AG) (AG) (AU) (AU) (AU) (AU) (AU) (AG) (AG) (AG)
                 (AG)
       Virtual   (AU) (AG) (AU) (AU) (AU) (AG) (AG) (AU) (AG) (AG)
                 (AG) (AU) (AU) (AG) (AU) (AU) (AU) (AG) (AU) (AU)
                 (AG) (AG) (AG) (AG) (AG) (AU) (AU) (AU) (AU) (AG)
                 (AG) (AG) (AG) (AG) (AU) (AG) (AU) (AU) (AU) (AG)
                 (AU) (AU) (AU) (AG) (AG) (AG) (AG) (AG) (AU) (AU)
                 (AU) (AG) (AU) (AG) (AG) (AU) (AG) (AU) (AU) (AU)
                 (AG) (AU) (AU) (AU) (AG) (AU) (AG) (AG) (AG) (AG)
                 (AU) (AU) (AU) (AG) (AG) (AG) (AG) (AU) (AU) (AG)
                 (AG) (AG) (AU) (AU) (AG) (AU) (AU) (AU) (AU) (AG)
                 (AG) (AG) (AU)
 The electronic state is 2-AU.
 Alpha  occ. eigenvalues --   -9.96142  -9.96140  -9.96102  -9.96096  -9.93361
 Alpha  occ. eigenvalues --   -9.93357  -0.62318  -0.51936  -0.51446  -0.38019
 Alpha  occ. eigenvalues --   -0.37989  -0.30971  -0.24809  -0.22288  -0.21003
 Alpha  occ. eigenvalues --   -0.20083  -0.15621  -0.12928  -0.12638  -0.04636
 Alpha  occ. eigenvalues --   -0.04602   0.15399
 Alpha virt. eigenvalues --    0.20968   0.23254   0.26678   0.27184   0.30364
 Alpha virt. eigenvalues --    0.30786   0.32473   0.35646   0.49817   0.50073
 Alpha virt. eigenvalues --    0.51418   0.51720   0.57364   0.60873   0.61956
 Alpha virt. eigenvalues --    0.62403   0.64332   0.67219   0.67831   0.70956
 Alpha virt. eigenvalues --    0.71527   0.73992   0.74231   0.75498   0.80148
 Alpha virt. eigenvalues --    0.80621   0.83372   0.84053   0.86603   0.87285
 Alpha virt. eigenvalues --    0.87363   0.94370   0.94518   0.94675   0.95296
 Alpha virt. eigenvalues --    0.98591   0.99184   1.05929   1.11228   1.23773
 Alpha virt. eigenvalues --    1.24120   1.36731   1.45623   1.46366   1.47302
 Alpha virt. eigenvalues --    1.47572   1.47951   1.52416   1.52681   1.71292
 Alpha virt. eigenvalues --    1.86278   1.86669   1.87660   1.97135   1.97263
 Alpha virt. eigenvalues --    1.97696   1.97773   1.97908   1.97926   1.97948
 Alpha virt. eigenvalues --    2.03618   2.04189   2.14627   2.20020   2.20642
 Alpha virt. eigenvalues --    2.21249   2.21301   2.21548   2.30565   2.37005
 Alpha virt. eigenvalues --    2.37108   2.37267   2.53837   2.54045   2.54989
 Alpha virt. eigenvalues --    2.55087   2.58367   2.58692   2.80596   2.84175
 Alpha virt. eigenvalues --    2.84451   2.89797   2.95075   2.95357   2.96112
 Alpha virt. eigenvalues --    3.11199   3.11947   3.13736   3.37471   3.38208
 Alpha virt. eigenvalues --    3.50701   3.93814
  Beta  occ. eigenvalues --   -9.96086  -9.96083  -9.96046  -9.96040  -9.92748
  Beta  occ. eigenvalues --   -9.92744  -0.61651  -0.51454  -0.50410  -0.37862
  Beta  occ. eigenvalues --   -0.36825  -0.30695  -0.24317  -0.21932  -0.20904
  Beta  occ. eigenvalues --   -0.19733  -0.13792  -0.12710  -0.12362  -0.03285
  Beta  occ. eigenvalues --   -0.01322
  Beta virt. eigenvalues --    0.21361   0.23359   0.23715   0.26702   0.27338
  Beta virt. eigenvalues --    0.30450   0.31068   0.32668   0.38513   0.50245
  Beta virt. eigenvalues --    0.50494   0.51658   0.52049   0.57724   0.61103
  Beta virt. eigenvalues --    0.62240   0.63009   0.64371   0.68216   0.68871
  Beta virt. eigenvalues --    0.71670   0.72193   0.74539   0.75747   0.75929
  Beta virt. eigenvalues --    0.80951   0.82725   0.83520   0.84629   0.86669
  Beta virt. eigenvalues --    0.87881   0.88885   0.94767   0.95143   0.95163
  Beta virt. eigenvalues --    0.95532   0.98727   0.99555   1.06698   1.11498
  Beta virt. eigenvalues --    1.23887   1.24392   1.37456   1.45957   1.47413
  Beta virt. eigenvalues --    1.47468   1.47982   1.49193   1.53098   1.53684
  Beta virt. eigenvalues --    1.71416   1.86683   1.86780   1.88114   1.97372
  Beta virt. eigenvalues --    1.97406   1.98036   1.98496   1.98545   1.98876
  Beta virt. eigenvalues --    1.99028   2.04301   2.04317   2.15260   2.20356
  Beta virt. eigenvalues --    2.21336   2.21367   2.21772   2.22364   2.30595
  Beta virt. eigenvalues --    2.37468   2.37508   2.38842   2.54483   2.55225
  Beta virt. eigenvalues --    2.55298   2.56060   2.58712   2.60436   2.81718
  Beta virt. eigenvalues --    2.84394   2.85712   2.91246   2.95112   2.95457
  Beta virt. eigenvalues --    2.96298   3.11253   3.12294   3.14492   3.37519
  Beta virt. eigenvalues --    3.38541   3.50928   3.94058
     Alpha Molecular Orbital Coefficients:
                           1         2         3         4         5
                           O         O         O         O         O
     Eigenvalues --    -9.96142  -9.96140  -9.96102  -9.96096  -9.93361
   1 1   C  1S          0.49361   0.49369   0.49442   0.49448   0.00443
   2        2S          0.02298   0.02166   0.02652   0.02586   0.00275
   3        3S         -0.00302  -0.01370  -0.02431  -0.02684  -0.01591
   4        4PX        -0.00012  -0.00024  -0.00018  -0.00046   0.00122
   5        4PY         0.00112   0.00149  -0.00092  -0.00108   0.00081
   6        4PZ        -0.00013  -0.00017   0.00009   0.00009  -0.00003
   7        5PX        -0.00053  -0.00157  -0.00445  -0.00311   0.00315
   8        5PY         0.00523  -0.00060  -0.00266   0.00309   0.00540
   9        5PZ        -0.00059  -0.00001   0.00008  -0.00048  -0.00044
  10        6D 0       -0.00054  -0.00074  -0.00179  -0.00165  -0.00093
  11        6D+1        0.00009   0.00012   0.00016   0.00015   0.00003
  12        6D-1       -0.00004  -0.00006  -0.00039  -0.00038  -0.00010
  13        6D+2        0.00063   0.00082  -0.00034  -0.00046   0.00040
  14        6D-2       -0.00013  -0.00022  -0.00027  -0.00030   0.00062
  15 2   C  1S          0.49493   0.49490  -0.49310  -0.49327  -0.00443
  16        2S          0.02305   0.02172  -0.02646  -0.02581  -0.00275
  17        3S         -0.00309  -0.01376   0.02430   0.02680   0.01591
  18        4PX        -0.00007  -0.00017   0.00022   0.00051  -0.00125
  19        4PY        -0.00112  -0.00150  -0.00091  -0.00106   0.00074
  20        4PZ         0.00012   0.00015   0.00011   0.00014  -0.00014
  21        5PX        -0.00031  -0.00160   0.00456   0.00296  -0.00338
  22        5PY        -0.00525   0.00050  -0.00243   0.00326   0.00523
  23        5PZ         0.00055  -0.00013   0.00047  -0.00021  -0.00072
  24        6D 0       -0.00055  -0.00075   0.00180   0.00165   0.00092
  25        6D+1        0.00005   0.00006  -0.00010  -0.00008  -0.00016
  26        6D-1       -0.00003  -0.00004   0.00037   0.00035   0.00015
  27        6D+2        0.00061   0.00079   0.00037   0.00049  -0.00046
  28        6D-2        0.00020   0.00031  -0.00027  -0.00028   0.00056
  29 3   C  1S          0.00001   0.00746  -0.00725   0.00001   0.69851
  30        2S         -0.00000  -0.00376   0.00316  -0.00000   0.03553
  31        3S          0.00003   0.01249  -0.02126   0.00002  -0.02020
  32        4PX         0.00182   0.00003  -0.00002  -0.00240   0.00000
  33        4PY         0.00005  -0.00104   0.00094  -0.00007  -0.00008
  34        4PZ         0.00008   0.00011  -0.00010  -0.00010   0.00001
  35        5PX         0.00873  -0.00007   0.00000   0.00259   0.00009
  36        5PY         0.00023   0.00288   0.00043   0.00007  -0.00425
  37        5PZ         0.00038  -0.00031  -0.00005   0.00011   0.00046
  38        6D 0       -0.00001   0.00090  -0.00126   0.00001  -0.00156
  39        6D+1       -0.00010  -0.00010   0.00012   0.00013   0.00011
  40        6D-1        0.00004   0.00010  -0.00019  -0.00005  -0.00033
  41        6D+2       -0.00004  -0.00064   0.00043   0.00006  -0.00030
  42        6D-2        0.00091  -0.00004   0.00003  -0.00114  -0.00000
  43 4   C  1S         -0.49361   0.49369  -0.49442   0.49448  -0.00443
  44        2S         -0.02298   0.02166  -0.02652   0.02586  -0.00275
  45        3S          0.00302  -0.01370   0.02431  -0.02684   0.01591
  46        4PX        -0.00012   0.00024  -0.00018   0.00046   0.00122
  47        4PY         0.00112  -0.00149  -0.00092   0.00108   0.00081
  48        4PZ        -0.00013   0.00017   0.00009  -0.00009  -0.00003
  49        5PX        -0.00053   0.00157  -0.00445   0.00311   0.00315
  50        5PY         0.00523   0.00060  -0.00266  -0.00309   0.00540
  51        5PZ        -0.00059   0.00001   0.00008   0.00048  -0.00044
  52        6D 0        0.00054  -0.00074   0.00179  -0.00165   0.00093
  53        6D+1       -0.00009   0.00012  -0.00016   0.00015  -0.00003
  54        6D-1        0.00004  -0.00006   0.00039  -0.00038   0.00010
  55        6D+2       -0.00063   0.00082   0.00034  -0.00046  -0.00040
  56        6D-2        0.00013  -0.00022   0.00027  -0.00030  -0.00062
  57 5   C  1S         -0.49493   0.49490   0.49310  -0.49327   0.00443
  58        2S         -0.02305   0.02172   0.02646  -0.02581   0.00275
  59        3S          0.00309  -0.01376  -0.02430   0.02680  -0.01591
  60        4PX        -0.00007   0.00017   0.00022  -0.00051  -0.00125
  61        4PY        -0.00112   0.00150  -0.00091   0.00106   0.00074
  62        4PZ         0.00012  -0.00015   0.00011  -0.00014  -0.00014
  63        5PX        -0.00031   0.00160   0.00456  -0.00296  -0.00338
  64        5PY        -0.00525  -0.00050  -0.00243  -0.00326   0.00523
  65        5PZ         0.00055   0.00013   0.00047   0.00021  -0.00072
  66        6D 0        0.00055  -0.00075  -0.00180   0.00165  -0.00092
  67        6D+1       -0.00005   0.00006   0.00010  -0.00008   0.00016
  68        6D-1        0.00003  -0.00004  -0.00037   0.00035  -0.00015
  69        6D+2       -0.00061   0.00079  -0.00037   0.00049   0.00046
  70        6D-2       -0.00020   0.00031   0.00027  -0.00028  -0.00056
  71 6   C  1S         -0.00001   0.00746   0.00725   0.00001  -0.69851
  72        2S          0.00000  -0.00376  -0.00316  -0.00000  -0.03553
  73        3S         -0.00003   0.01249   0.02126   0.00002   0.02020
  74        4PX         0.00182  -0.00003  -0.00002   0.00240   0.00000
  75        4PY         0.00005   0.00104   0.00094   0.00007  -0.00008
  76        4PZ         0.00008  -0.00011  -0.00010   0.00010   0.00001
  77        5PX         0.00873   0.00007   0.00000  -0.00259   0.00009
  78        5PY         0.00023  -0.00288   0.00043  -0.00007  -0.00425
  79        5PZ         0.00038   0.00031  -0.00005  -0.00011   0.00046
  80        6D 0        0.00001   0.00090   0.00126   0.00001   0.00156
  81        6D+1        0.00010  -0.00010  -0.00012   0.00013  -0.00011
  82        6D-1       -0.00004   0.00010   0.00019  -0.00005   0.00033
  83        6D+2        0.00004  -0.00064  -0.00043   0.00006   0.00030
  84        6D-2       -0.00091  -0.00004  -0.00003  -0.00114   0.00000
  85 7   H  1S         -0.00326  -0.00240  -0.00266  -0.00282   0.00042
  86        2S          0.00128   0.00303   0.00396   0.00371   0.00199
  87        3PX        -0.00134  -0.00128  -0.00137  -0.00145  -0.00062
  88        3PY         0.00024   0.00054   0.00124   0.00093  -0.00035
  89        3PZ        -0.00009  -0.00012  -0.00020  -0.00017   0.00001
  90 8   H  1S         -0.00327  -0.00241   0.00265   0.00282  -0.00042
  91        2S          0.00129   0.00304  -0.00396  -0.00371  -0.00199
  92        3PX        -0.00133  -0.00125   0.00131   0.00140   0.00064
  93        3PY        -0.00031  -0.00061   0.00131   0.00101  -0.00032
  94        3PZ        -0.00003   0.00001  -0.00008  -0.00004   0.00006
  95 9   H  1S         -0.00000   0.00036   0.00066   0.00000  -0.00418
  96        2S         -0.00000  -0.00065   0.00267  -0.00000   0.00373
  97        3PX        -0.00086  -0.00001   0.00001   0.00026   0.00005
  98        3PY        -0.00002   0.00031  -0.00049   0.00001  -0.00216
  99        3PZ        -0.00004  -0.00003   0.00005   0.00001   0.00024
 100 10  H  1S          0.00326  -0.00240   0.00266  -0.00282  -0.00042
 101        2S         -0.00128   0.00303  -0.00396   0.00371  -0.00199
 102        3PX        -0.00134   0.00128  -0.00137   0.00145  -0.00062
 103        3PY         0.00024  -0.00054   0.00124  -0.00093  -0.00035
 104        3PZ        -0.00009   0.00012  -0.00020   0.00017   0.00001
 105 11  H  1S          0.00327  -0.00241  -0.00265   0.00282   0.00042
 106        2S         -0.00129   0.00304   0.00396  -0.00371   0.00199
 107        3PX        -0.00133   0.00125   0.00131  -0.00140   0.00064
 108        3PY        -0.00031   0.00061   0.00131  -0.00101  -0.00032
 109        3PZ        -0.00003  -0.00001  -0.00008   0.00004   0.00006
 110 12  H  1S          0.00000   0.00036  -0.00066   0.00000   0.00418
 111        2S          0.00000  -0.00065  -0.00267  -0.00000  -0.00373
 112        3PX        -0.00086   0.00001   0.00001  -0.00026   0.00005
 113        3PY        -0.00002  -0.00031  -0.00049  -0.00001  -0.00216
 114        3PZ        -0.00004   0.00003   0.00005  -0.00001   0.00024
                           6         7         8         9        10
                           O         O         O         O         O
     Eigenvalues --    -9.93357  -0.62318  -0.51936  -0.51446  -0.38019
   1 1   C  1S         -0.00464  -0.12061  -0.14329   0.08377   0.11151
   2        2S         -0.00317   0.22735   0.27767  -0.16354  -0.22598
   3        3S          0.00948   0.05156   0.06508  -0.02736  -0.05597
   4        4PX        -0.00148   0.05443  -0.01300  -0.05596   0.00787
   5        4PY        -0.00116  -0.03109  -0.05887  -0.08180  -0.11590
   6        4PZ         0.00006   0.00589   0.00574   0.00621   0.01287
   7        5PX         0.00287   0.01162  -0.00569  -0.01447  -0.01976
   8        5PY         0.00057  -0.00770  -0.02083  -0.02810  -0.02426
   9        5PZ         0.00007   0.00137   0.00198   0.00235   0.00169
  10        6D 0        0.00067  -0.00772  -0.00530   0.00359   0.00181
  11        6D+1        0.00001   0.00038  -0.00003   0.00023  -0.00025
  12        6D-1        0.00004  -0.00150  -0.00176  -0.00041  -0.00010
  13        6D+2       -0.00046  -0.00121  -0.00748  -0.00664  -0.00380
  14        6D-2       -0.00083   0.00185   0.00111  -0.00768  -0.00070
  15 2   C  1S         -0.00464  -0.12061  -0.14330  -0.08375  -0.11154
  16        2S         -0.00317   0.22735   0.27769   0.16351   0.22604
  17        3S          0.00948   0.05156   0.06508   0.02735   0.05599
  18        4PX        -0.00153   0.05300  -0.01557   0.05951  -0.00282
  19        4PY         0.00108   0.03397   0.05809  -0.07871  -0.11613
  20        4PZ        -0.00019  -0.00119  -0.00699   0.01126   0.01239
  21        5PX         0.00289   0.01127  -0.00660   0.01569   0.02080
  22        5PY        -0.00042   0.00832   0.02050  -0.02729  -0.02315
  23        5PZ         0.00018  -0.00037  -0.00252   0.00367   0.00347
  24        6D 0        0.00065  -0.00768  -0.00527  -0.00347  -0.00180
  25        6D+1       -0.00016   0.00078   0.00028   0.00138   0.00036
  26        6D-1        0.00010  -0.00166  -0.00188  -0.00019   0.00006
  27        6D+2       -0.00054  -0.00103  -0.00734   0.00736   0.00385
  28        6D-2        0.00077  -0.00183  -0.00174  -0.00694  -0.00030
  29 3   C  1S          0.69861  -0.11807  -0.00001  -0.16469   0.00003
  30        2S          0.03410   0.22143   0.00002   0.31728  -0.00006
  31        3S         -0.02945   0.05037   0.00001   0.09145  -0.00002
  32        4PX         0.00001  -0.00140  -0.10891  -0.00052  -0.19243
  33        4PY        -0.00041   0.06344  -0.00292   0.02374  -0.00515
  34        4PZ         0.00005  -0.00691  -0.00477  -0.00258  -0.00842
  35        5PX         0.00009  -0.00023  -0.03819  -0.00021  -0.06349
  36        5PY        -0.00401   0.01034  -0.00102   0.00940  -0.00171
  37        5PZ         0.00044  -0.00113  -0.00167  -0.00102  -0.00278
  38        6D 0       -0.00159  -0.00659   0.00009  -0.00474   0.00006
  39        6D+1        0.00011   0.00063   0.00122   0.00063   0.00084
  40        6D-1       -0.00034  -0.00099  -0.00046  -0.00022  -0.00031
  41        6D+2       -0.00040   0.00229   0.00055   0.00605   0.00038
  42        6D-2       -0.00001   0.00017  -0.01114   0.00034  -0.00766
  43 4   C  1S         -0.00464  -0.12061   0.14329  -0.08377   0.11151
  44        2S         -0.00317   0.22735  -0.27767   0.16354  -0.22598
  45        3S          0.00948   0.05156  -0.06508   0.02736  -0.05597
  46        4PX         0.00148  -0.05443  -0.01300  -0.05596  -0.00787
  47        4PY         0.00116   0.03109  -0.05887  -0.08180   0.11590
  48        4PZ        -0.00006  -0.00589   0.00574   0.00621  -0.01287
  49        5PX        -0.00287  -0.01162  -0.00569  -0.01447   0.01976
  50        5PY        -0.00057   0.00770  -0.02083  -0.02810   0.02426
  51        5PZ        -0.00007  -0.00137   0.00198   0.00235  -0.00169
  52        6D 0        0.00067  -0.00772   0.00530  -0.00359   0.00181
  53        6D+1        0.00001   0.00038   0.00003  -0.00023  -0.00025
  54        6D-1        0.00004  -0.00150   0.00176   0.00041  -0.00010
  55        6D+2       -0.00046  -0.00121   0.00748   0.00664  -0.00380
  56        6D-2       -0.00083   0.00185  -0.00111   0.00768  -0.00070
  57 5   C  1S         -0.00464  -0.12061   0.14330   0.08375  -0.11154
  58        2S         -0.00317   0.22735  -0.27769  -0.16351   0.22604
  59        3S          0.00948   0.05156  -0.06508  -0.02735   0.05599
  60        4PX         0.00153  -0.05300  -0.01557   0.05951   0.00282
  61        4PY        -0.00108  -0.03397   0.05809  -0.07871   0.11613
  62        4PZ         0.00019   0.00119  -0.00699   0.01126  -0.01239
  63        5PX        -0.00289  -0.01127  -0.00660   0.01569  -0.02080
  64        5PY         0.00042  -0.00832   0.02050  -0.02729   0.02315
  65        5PZ        -0.00018   0.00037  -0.00252   0.00367  -0.00347
  66        6D 0        0.00065  -0.00768   0.00527   0.00347  -0.00180
  67        6D+1       -0.00016   0.00078  -0.00028  -0.00138   0.00036
  68        6D-1        0.00010  -0.00166   0.00188   0.00019   0.00006
  69        6D+2       -0.00054  -0.00103   0.00734  -0.00736   0.00385
  70        6D-2        0.00077  -0.00183   0.00174   0.00694  -0.00030
  71 6   C  1S          0.69861  -0.11807   0.00001   0.16469   0.00003
  72        2S          0.03410   0.22143  -0.00002  -0.31728  -0.00006
  73        3S         -0.02945   0.05037  -0.00001  -0.09145  -0.00002
  74        4PX        -0.00001   0.00140  -0.10891  -0.00052   0.19243
  75        4PY         0.00041  -0.06344  -0.00292   0.02374   0.00515
  76        4PZ        -0.00005   0.00691  -0.00477  -0.00258   0.00842
  77        5PX        -0.00009   0.00023  -0.03819  -0.00021   0.06349
  78        5PY         0.00401  -0.01034  -0.00102   0.00940   0.00171
  79        5PZ        -0.00044   0.00113  -0.00167  -0.00102   0.00278
  80        6D 0       -0.00159  -0.00659  -0.00009   0.00474   0.00006
  81        6D+1        0.00011   0.00063  -0.00122  -0.00063   0.00084
  82        6D-1       -0.00034  -0.00099   0.00046   0.00022  -0.00031
  83        6D+2       -0.00040   0.00229  -0.00055  -0.00605   0.00038
  84        6D-2       -0.00001   0.00017   0.01114  -0.00034  -0.00766
  85 7   H  1S          0.00032   0.04837   0.09384  -0.05544  -0.14175
  86        2S         -0.00051   0.01116   0.02191  -0.01332  -0.05757
  87        3PX         0.00031   0.00689   0.00961  -0.00697  -0.01099
  88        3PY         0.00005  -0.00362  -0.00637   0.00128   0.00326
  89        3PZ         0.00001   0.00071   0.00114  -0.00046  -0.00086
  90 8   H  1S          0.00032   0.04837   0.09385   0.05543   0.14180
  91        2S         -0.00051   0.01116   0.02191   0.01332   0.05758
  92        3PX         0.00031   0.00672   0.00932   0.00690   0.01084
  93        3PY        -0.00003   0.00399   0.00688   0.00165   0.00385
  94        3PZ         0.00002  -0.00012  -0.00031   0.00014   0.00009
  95 9   H  1S         -0.00369   0.04428   0.00001   0.10247  -0.00004
  96        2S          0.00479   0.00906   0.00000   0.02329  -0.00001
  97        3PX         0.00005  -0.00016  -0.00224  -0.00028  -0.00416
  98        3PY        -0.00217   0.00746  -0.00006   0.01287  -0.00011
  99        3PZ         0.00024  -0.00081  -0.00010  -0.00140  -0.00018
 100 10  H  1S          0.00032   0.04837  -0.09384   0.05544  -0.14175
 101        2S         -0.00051   0.01116  -0.02191   0.01332  -0.05757
 102        3PX        -0.00031  -0.00689   0.00961  -0.00697   0.01099
 103        3PY        -0.00005   0.00362  -0.00637   0.00128  -0.00326
 104        3PZ        -0.00001  -0.00071   0.00114  -0.00046   0.00086
 105 11  H  1S          0.00032   0.04837  -0.09385  -0.05543   0.14180
 106        2S         -0.00051   0.01116  -0.02191  -0.01332   0.05758
 107        3PX        -0.00031  -0.00672   0.00932   0.00690  -0.01084
 108        3PY         0.00003  -0.00399   0.00688   0.00165  -0.00385
 109        3PZ        -0.00002   0.00012  -0.00031   0.00014  -0.00009
 110 12  H  1S         -0.00369   0.04428  -0.00001  -0.10247  -0.00004
 111        2S          0.00479   0.00906  -0.00000  -0.02329  -0.00001
 112        3PX        -0.00005   0.00016  -0.00224  -0.00028   0.00416
 113        3PY         0.00217  -0.00746  -0.00006   0.01287   0.00011
 114        3PZ        -0.00024   0.00081  -0.00010  -0.00140   0.00018
                          11        12        13        14        15
                           O         O         O         O         O
     Eigenvalues --    -0.37989  -0.30971  -0.24809  -0.22288  -0.21003
   1 1   C  1S          0.06324   0.00510  -0.06881  -0.00159  -0.03336
   2        2S         -0.12671  -0.00947   0.13974   0.00373   0.08494
   3        3S         -0.04350  -0.01085   0.39640   0.01220   0.12268
   4        4PX         0.12337   0.16269  -0.13290  -0.11211   0.21775
   5        4PY         0.13146  -0.10625   0.05933  -0.25796  -0.13599
   6        4PZ        -0.00842   0.01905  -0.01260   0.02259   0.02484
   7        5PX         0.02285   0.05060   0.12571  -0.04005   0.07073
   8        5PY         0.04956  -0.03215  -0.06196  -0.08462   0.00437
   9        5PZ        -0.00428   0.00583   0.01255   0.00726   0.00283
  10        6D 0        0.00025  -0.00028  -0.00061   0.00065   0.00052
  11        6D+1       -0.00021   0.00059   0.00169  -0.00002  -0.00042
  12        6D-1        0.00083  -0.00003  -0.00006  -0.00039  -0.00075
  13        6D+2        0.00540   0.00211   0.00607  -0.00387  -0.00784
  14        6D-2        0.00405  -0.00433  -0.01259  -0.00196   0.00018
  15 2   C  1S          0.06319   0.00510   0.06881  -0.00159  -0.03336
  16        2S         -0.12660  -0.00947  -0.13974   0.00374   0.08495
  17        3S         -0.04347  -0.01085  -0.39639   0.01222   0.12269
  18        4PX         0.12902   0.15781   0.13013  -0.12335   0.21150
  19        4PY        -0.12474   0.11485   0.06641   0.25164   0.14750
  20        4PZ         0.01947  -0.00502  -0.00108  -0.03289  -0.00602
  21        5PX         0.02502   0.04913  -0.12283  -0.04373   0.07085
  22        5PY        -0.04829   0.03482  -0.06863   0.08237  -0.00056
  23        5PZ         0.00637  -0.00146   0.00167  -0.01092   0.00337
  24        6D 0        0.00031  -0.00035   0.00082   0.00062   0.00053
  25        6D+1        0.00062  -0.00038   0.00113  -0.00041  -0.00030
  26        6D-1        0.00052   0.00033  -0.00100  -0.00025  -0.00079
  27        6D+2        0.00577   0.00168  -0.00481  -0.00404  -0.00778
  28        6D-2       -0.00351   0.00452  -0.01313   0.00157  -0.00095
  29 3   C  1S         -0.12928   0.01666  -0.07849   0.00000   0.00000
  30        2S          0.25741  -0.03284   0.16028  -0.00000  -0.00000
  31        3S          0.08797  -0.02399   0.42910  -0.00001  -0.00000
  32        4PX         0.00114  -0.00414   0.00192   0.26265  -0.11711
  33        4PY        -0.05400   0.18745  -0.08674   0.00705  -0.00313
  34        4PZ         0.00588  -0.02041   0.00944   0.01150  -0.00512
  35        5PX        -0.00039  -0.00130  -0.00334   0.10013   0.04355
  36        5PY         0.01714   0.05889   0.15163   0.00268   0.00117
  37        5PZ        -0.00187  -0.00641  -0.01651   0.00438   0.00191
  38        6D 0       -0.00017  -0.00077   0.00061  -0.00002   0.00012
  39        6D+1       -0.00004  -0.00018  -0.00055  -0.00031   0.00155
  40        6D-1       -0.00017  -0.00079  -0.00123   0.00011  -0.00057
  41        6D+2       -0.00120  -0.00582  -0.01213  -0.00014   0.00069
  42        6D-2       -0.00006  -0.00028  -0.00060   0.00278  -0.01407
  43 4   C  1S          0.06324   0.00510   0.06881   0.00159   0.03336
  44        2S         -0.12671  -0.00947  -0.13974  -0.00373  -0.08494
  45        3S         -0.04350  -0.01085  -0.39640  -0.01220  -0.12268
  46        4PX        -0.12337  -0.16269  -0.13290  -0.11211   0.21775
  47        4PY        -0.13146   0.10625   0.05933  -0.25796  -0.13599
  48        4PZ         0.00842  -0.01905  -0.01260   0.02259   0.02484
  49        5PX        -0.02285  -0.05060   0.12571  -0.04005   0.07073
  50        5PY        -0.04956   0.03215  -0.06196  -0.08462   0.00437
  51        5PZ         0.00428  -0.00583   0.01255   0.00726   0.00283
  52        6D 0        0.00025  -0.00028   0.00061  -0.00065  -0.00052
  53        6D+1       -0.00021   0.00059  -0.00169   0.00002   0.00042
  54        6D-1        0.00083  -0.00003   0.00006   0.00039   0.00075
  55        6D+2        0.00540   0.00211  -0.00607   0.00387   0.00784
  56        6D-2        0.00405  -0.00433   0.01259   0.00196  -0.00018
  57 5   C  1S          0.06319   0.00510  -0.06881   0.00159   0.03336
  58        2S         -0.12660  -0.00947   0.13974  -0.00374  -0.08495
  59        3S         -0.04347  -0.01085   0.39639  -0.01222  -0.12269
  60        4PX        -0.12902  -0.15781   0.13013  -0.12335   0.21150
  61        4PY         0.12474  -0.11485   0.06641   0.25164   0.14750
  62        4PZ        -0.01947   0.00502  -0.00108  -0.03289  -0.00602
  63        5PX        -0.02502  -0.04913  -0.12283  -0.04373   0.07085
  64        5PY         0.04829  -0.03482  -0.06863   0.08237  -0.00056
  65        5PZ        -0.00637   0.00146   0.00167  -0.01092   0.00337
  66        6D 0        0.00031  -0.00035  -0.00082  -0.00062  -0.00053
  67        6D+1        0.00062  -0.00038  -0.00113   0.00041   0.00030
  68        6D-1        0.00052   0.00033   0.00100   0.00025   0.00079
  69        6D+2        0.00577   0.00168   0.00481   0.00404   0.00778
  70        6D-2       -0.00351   0.00452   0.01313  -0.00157   0.00095
  71 6   C  1S         -0.12928   0.01666   0.07849  -0.00000  -0.00000
  72        2S          0.25741  -0.03284  -0.16028   0.00000   0.00000
  73        3S          0.08797  -0.02399  -0.42910   0.00001   0.00000
  74        4PX        -0.00114   0.00414   0.00192   0.26265  -0.11711
  75        4PY         0.05400  -0.18745  -0.08674   0.00705  -0.00313
  76        4PZ        -0.00588   0.02041   0.00944   0.01150  -0.00512
  77        5PX         0.00039   0.00130  -0.00334   0.10013   0.04355
  78        5PY        -0.01714  -0.05889   0.15163   0.00268   0.00117
  79        5PZ         0.00187   0.00641  -0.01651   0.00438   0.00191
  80        6D 0       -0.00017  -0.00077  -0.00061   0.00002  -0.00012
  81        6D+1       -0.00004  -0.00018   0.00055   0.00031  -0.00155
  82        6D-1       -0.00017  -0.00079   0.00123  -0.00011   0.00057
  83        6D+2       -0.00120  -0.00582   0.01213   0.00014  -0.00069
  84        6D-2       -0.00006  -0.00028   0.00060  -0.00278   0.01407
  85 7   H  1S         -0.08575  -0.14046   0.21138  -0.02143  -0.19160
  86        2S         -0.03376  -0.05103   0.12927  -0.01404  -0.12984
  87        3PX        -0.00400  -0.00626   0.00770  -0.00422  -0.00565
  88        3PY         0.00660   0.00281  -0.00443  -0.00615   0.00221
  89        3PZ        -0.00090  -0.00060   0.00084   0.00047  -0.00050
  90 8   H  1S         -0.08568  -0.14045  -0.21138  -0.02142  -0.19159
  91        2S         -0.03373  -0.05103  -0.12927  -0.01404  -0.12984
  92        3PX        -0.00370  -0.00613  -0.00750  -0.00448  -0.00554
  93        3PY        -0.00680  -0.00314  -0.00483   0.00592  -0.00251
  94        3PZ         0.00056   0.00005   0.00017  -0.00085   0.00001
  95 9   H  1S          0.14683  -0.14213   0.16670  -0.00001  -0.00001
  96        2S          0.06035  -0.05037   0.10139  -0.00000  -0.00000
  97        3PX        -0.00027   0.00017  -0.00017   0.00653  -0.00352
  98        3PY         0.01225  -0.00758   0.00764   0.00017  -0.00009
  99        3PZ        -0.00133   0.00082  -0.00083   0.00029  -0.00015
 100 10  H  1S         -0.08575  -0.14046  -0.21138   0.02143   0.19160
 101        2S         -0.03376  -0.05103  -0.12927   0.01404   0.12984
 102        3PX         0.00400   0.00626   0.00770  -0.00422  -0.00565
 103        3PY        -0.00660  -0.00281  -0.00443  -0.00615   0.00221
 104        3PZ         0.00090   0.00060   0.00084   0.00047  -0.00050
 105 11  H  1S         -0.08568  -0.14045   0.21138   0.02142   0.19159
 106        2S         -0.03373  -0.05103   0.12927   0.01404   0.12984
 107        3PX         0.00370   0.00613  -0.00750  -0.00448  -0.00554
 108        3PY         0.00680   0.00314  -0.00483   0.00592  -0.00251
 109        3PZ        -0.00056  -0.00005   0.00017  -0.00085   0.00001
 110 12  H  1S          0.14683  -0.14213  -0.16670   0.00001   0.00001
 111        2S          0.06035  -0.05037  -0.10139   0.00000   0.00000
 112        3PX         0.00027  -0.00017  -0.00017   0.00653  -0.00352
 113        3PY        -0.01225   0.00758   0.00764   0.00017  -0.00009
 114        3PZ         0.00133  -0.00082  -0.00083   0.00029  -0.00015
                          16        17        18        19        20
                           O         O         O         O         O
     Eigenvalues --    -0.20083  -0.15621  -0.12928  -0.12638  -0.04636
   1 1   C  1S          0.02806   0.00000  -0.01307   0.00532   0.00000
   2        2S         -0.06748  -0.00000   0.03682  -0.01562   0.00000
   3        3S         -0.13093  -0.00000  -0.04481   0.02422  -0.00000
   4        4PX        -0.15298  -0.01032   0.22980   0.02353   0.00753
   5        4PY        -0.00497   0.02384   0.03406   0.25398  -0.01738
   6        4PZ        -0.00660   0.22104   0.00705  -0.02630  -0.16112
   7        5PX        -0.02671  -0.00575   0.01199   0.05870   0.00509
   8        5PY         0.06795   0.01326   0.06090   0.07876  -0.01176
   9        5PZ        -0.00857   0.12304  -0.00601  -0.00576  -0.10906
  10        6D 0        0.00011   0.00160   0.00069  -0.00113   0.00153
  11        6D+1        0.00031   0.00746  -0.00223   0.00113  -0.00972
  12        6D-1       -0.00137  -0.00520   0.00045   0.00110  -0.01228
  13        6D+2       -0.00965   0.00022  -0.00494   0.01366   0.00179
  14        6D-2       -0.00704   0.00106   0.01800  -0.00373  -0.00047
  15 2   C  1S         -0.02806   0.00000   0.01307   0.00532  -0.00000
  16        2S          0.06748  -0.00000  -0.03682  -0.01561   0.00000
  17        3S          0.13092  -0.00001   0.04482   0.02421   0.00000
  18        4PX         0.15301  -0.01033  -0.23102   0.03477  -0.00753
  19        4PY         0.00323   0.02383   0.02163  -0.25242   0.01739
  20        4PZ         0.00680   0.22104  -0.01312   0.02883   0.16124
  21        5PX         0.02369  -0.00575  -0.01464   0.06211  -0.00510
  22        5PY         0.06930   0.01326   0.06016  -0.07553   0.01177
  23        5PZ        -0.00637   0.12304  -0.00717   0.01104   0.10915
  24        6D 0       -0.00000  -0.00048  -0.00099  -0.00120   0.00304
  25        6D+1        0.00113   0.00728  -0.00177   0.00016   0.01013
  26        6D-1        0.00083   0.00567   0.00104   0.00145  -0.01164
  27        6D+2        0.01029  -0.00095   0.00316   0.01323   0.00080
  28        6D-2       -0.00607   0.00052   0.01841   0.00506   0.00165
  29 3   C  1S         -0.02690  -0.00000  -0.00000  -0.00967  -0.00000
  30        2S          0.07490   0.00000   0.00000   0.03102   0.00000
  31        3S          0.07771  -0.00001  -0.00001  -0.05860   0.00000
  32        4PX        -0.00679  -0.01058   0.27263  -0.00485  -0.01625
  33        4PY         0.30790   0.02445   0.00734   0.21835   0.03757
  34        4PZ        -0.03351   0.22674   0.01192  -0.02377   0.34843
  35        5PX        -0.00110  -0.00573   0.11293   0.00034  -0.01202
  36        5PY         0.04988   0.01322   0.00303  -0.01594   0.02779
  37        5PZ        -0.00543   0.12264   0.00494   0.00174   0.25778
  38        6D 0        0.00020  -0.00168  -0.00009   0.00060  -0.00084
  39        6D+1        0.00022  -0.00015  -0.00126   0.00074  -0.00008
  40        6D-1        0.00069   0.00878   0.00047   0.00226   0.00441
  41        6D+2        0.00585  -0.00095  -0.00056   0.01930  -0.00048
  42        6D-2        0.00028  -0.00043   0.01145   0.00094  -0.00022
  43 4   C  1S         -0.02806  -0.00000  -0.01307   0.00532   0.00000
  44        2S          0.06748   0.00000   0.03682  -0.01562   0.00000
  45        3S          0.13093   0.00000  -0.04481   0.02422  -0.00000
  46        4PX        -0.15298  -0.01032  -0.22980  -0.02353  -0.00753
  47        4PY        -0.00497   0.02384  -0.03406  -0.25398   0.01738
  48        4PZ        -0.00660   0.22104  -0.00705   0.02630   0.16112
  49        5PX        -0.02671  -0.00575  -0.01199  -0.05870  -0.00509
  50        5PY         0.06795   0.01326  -0.06090  -0.07876   0.01176
  51        5PZ        -0.00857   0.12304   0.00601   0.00576   0.10906
  52        6D 0       -0.00011  -0.00160   0.00069  -0.00113   0.00153
  53        6D+1       -0.00031  -0.00746  -0.00223   0.00113  -0.00972
  54        6D-1        0.00137   0.00520   0.00045   0.00110  -0.01228
  55        6D+2        0.00965  -0.00022  -0.00494   0.01366   0.00179
  56        6D-2        0.00704  -0.00106   0.01800  -0.00373  -0.00047
  57 5   C  1S          0.02806  -0.00000   0.01307   0.00532  -0.00000
  58        2S         -0.06748   0.00000  -0.03682  -0.01561   0.00000
  59        3S         -0.13092   0.00001   0.04482   0.02421   0.00000
  60        4PX         0.15301  -0.01033   0.23102  -0.03477   0.00753
  61        4PY         0.00323   0.02383  -0.02163   0.25242  -0.01739
  62        4PZ         0.00680   0.22104   0.01312  -0.02883  -0.16124
  63        5PX         0.02369  -0.00575   0.01464  -0.06211   0.00510
  64        5PY         0.06930   0.01326  -0.06016   0.07553  -0.01177
  65        5PZ        -0.00637   0.12304   0.00717  -0.01104  -0.10915
  66        6D 0        0.00000   0.00048  -0.00099  -0.00120   0.00304
  67        6D+1       -0.00113  -0.00728  -0.00177   0.00016   0.01013
  68        6D-1       -0.00083  -0.00567   0.00104   0.00145  -0.01164
  69        6D+2       -0.01029   0.00095   0.00316   0.01323   0.00080
  70        6D-2        0.00607  -0.00052   0.01841   0.00506   0.00165
  71 6   C  1S          0.02690   0.00000  -0.00000  -0.00967  -0.00000
  72        2S         -0.07490  -0.00000   0.00000   0.03102   0.00000
  73        3S         -0.07771   0.00001  -0.00001  -0.05860   0.00000
  74        4PX        -0.00679  -0.01058  -0.27263   0.00485   0.01625
  75        4PY         0.30790   0.02445  -0.00734  -0.21835  -0.03757
  76        4PZ        -0.03351   0.22674  -0.01192   0.02377  -0.34843
  77        5PX        -0.00110  -0.00573  -0.11293  -0.00034   0.01202
  78        5PY         0.04988   0.01322  -0.00303   0.01594  -0.02779
  79        5PZ        -0.00543   0.12264  -0.00494  -0.00174  -0.25778
  80        6D 0       -0.00020   0.00168  -0.00009   0.00060  -0.00084
  81        6D+1       -0.00022   0.00015  -0.00126   0.00074  -0.00008
  82        6D-1       -0.00069  -0.00878   0.00047   0.00226   0.00441
  83        6D+2       -0.00585   0.00095  -0.00056   0.01930  -0.00048
  84        6D-2       -0.00028   0.00043   0.01145   0.00094  -0.00022
  85 7   H  1S          0.08503   0.00001  -0.19985   0.11486  -0.00001
  86        2S          0.05947   0.00001  -0.17068   0.09980  -0.00000
  87        3PX         0.00104  -0.00030  -0.00220   0.00471   0.00028
  88        3PY        -0.00322   0.00069   0.00466   0.00355  -0.00064
  89        3PZ         0.00040   0.00637  -0.00061  -0.00016  -0.00593
  90 8   H  1S         -0.08502   0.00001   0.19988   0.11480   0.00000
  91        2S         -0.05947   0.00001   0.17070   0.09975   0.00000
  92        3PX        -0.00089  -0.00030   0.00200   0.00486  -0.00028
  93        3PY        -0.00327   0.00069   0.00477  -0.00330   0.00064
  94        3PZ         0.00031   0.00637  -0.00042   0.00058   0.00594
  95 9   H  1S         -0.24402   0.00000  -0.00003  -0.23504   0.00000
  96        2S         -0.16801   0.00000  -0.00003  -0.19934  -0.00000
  97        3PX         0.00018  -0.00030   0.00593   0.00012  -0.00056
  98        3PY        -0.00814   0.00070   0.00016  -0.00549   0.00130
  99        3PZ         0.00089   0.00647   0.00026   0.00060   0.01210
 100 10  H  1S         -0.08503  -0.00001  -0.19985   0.11486  -0.00001
 101        2S         -0.05947  -0.00001  -0.17068   0.09980  -0.00000
 102        3PX         0.00104  -0.00030   0.00220  -0.00471  -0.00028
 103        3PY        -0.00322   0.00069  -0.00466  -0.00355   0.00064
 104        3PZ         0.00040   0.00637   0.00061   0.00016   0.00593
 105 11  H  1S          0.08502  -0.00001   0.19988   0.11480   0.00000
 106        2S          0.05947  -0.00001   0.17070   0.09975   0.00000
 107        3PX        -0.00089  -0.00030  -0.00200  -0.00486   0.00028
 108        3PY        -0.00327   0.00069  -0.00477   0.00330  -0.00064
 109        3PZ         0.00031   0.00637   0.00042  -0.00058  -0.00594
 110 12  H  1S          0.24402  -0.00000  -0.00003  -0.23504   0.00000
 111        2S          0.16801  -0.00000  -0.00003  -0.19934  -0.00000
 112        3PX         0.00018  -0.00030  -0.00593  -0.00012   0.00056
 113        3PY        -0.00814   0.00070  -0.00016   0.00549  -0.00130
 114        3PZ         0.00089   0.00647  -0.00026  -0.00060  -0.01210
                          21        22        23        24        25
                           O         O         V         V         V
     Eigenvalues --    -0.04602   0.15399   0.20968   0.23254   0.26678
   1 1   C  1S         -0.00000  -0.00000   0.00000   0.04037   0.03234
   2        2S          0.00000   0.00000  -0.00001  -0.07420  -0.06801
   3        3S          0.00000  -0.00002   0.00002  -0.59221  -0.90862
   4        4PX        -0.01365   0.00842   0.01438   0.09884   0.14907
   5        4PY         0.03154  -0.01944  -0.03323  -0.05648  -0.07657
   6        4PZ         0.29244  -0.18028  -0.30811   0.01071   0.01522
   7        5PX        -0.00996   0.01225   0.02148   0.26397   0.41900
   8        5PY         0.02302  -0.02832  -0.04959  -0.14933  -0.32687
   9        5PZ         0.21344  -0.26259  -0.45977   0.02843   0.05481
  10        6D 0        0.00205  -0.00250   0.00312  -0.00058   0.00284
  11        6D+1       -0.00182   0.01639   0.00112   0.00136  -0.00012
  12        6D-1       -0.01162   0.02030  -0.01601   0.00012   0.00031
  13        6D+2        0.00135  -0.00297   0.00169   0.00623  -0.00141
  14        6D-2        0.00036   0.00081   0.00089  -0.00945  -0.00164
  15 2   C  1S         -0.00000   0.00000  -0.00000   0.04037   0.03234
  16        2S          0.00000  -0.00000   0.00001  -0.07420  -0.06801
  17        3S          0.00001   0.00000  -0.00001  -0.59221  -0.90865
  18        4PX        -0.01365   0.00842  -0.01439   0.09623   0.14552
  19        4PY         0.03152  -0.01944   0.03322   0.06171   0.08447
  20        4PZ         0.29237  -0.18027   0.30812  -0.00216  -0.00231
  21        5PX        -0.00996   0.01227  -0.02149   0.25707   0.40409
  22        5PY         0.02301  -0.02831   0.04956   0.16332   0.34896
  23        5PZ         0.21340  -0.26257   0.45979  -0.00560  -0.01875
  24        6D 0       -0.00236   0.00504   0.00300  -0.00074   0.00282
  25        6D+1       -0.00222   0.01707  -0.00057  -0.00078  -0.00046
  26        6D-1        0.01150  -0.01924  -0.01606   0.00091   0.00043
  27        6D+2       -0.00115   0.00131   0.00177   0.00528  -0.00156
  28        6D-2       -0.00079   0.00277   0.00071   0.01002   0.00145
  29 3   C  1S          0.00000  -0.00000   0.00000   0.03621   0.00000
  30        2S         -0.00000   0.00000  -0.00000  -0.06544  -0.00000
  31        3S          0.00000  -0.00000   0.00004  -0.52371  -0.00001
  32        4PX         0.00001  -0.01686   0.00000  -0.00222   0.00688
  33        4PY        -0.00000   0.03895  -0.00000   0.10087   0.00019
  34        4PZ        -0.00007   0.36126  -0.00001  -0.01098   0.00030
  35        5PX         0.00000  -0.02431   0.00000  -0.00556  -0.17593
  36        5PY        -0.00000   0.05617   0.00002   0.25184  -0.00471
  37        5PZ        -0.00005   0.52102  -0.00001  -0.02741  -0.00771
  38        6D 0       -0.00132   0.00170  -0.00215  -0.00104   0.00003
  39        6D+1       -0.01740   0.00015  -0.02827  -0.00040   0.00044
  40        6D-1       -0.00055  -0.00890  -0.00089  -0.00152  -0.00016
  41        6D+2        0.00087   0.00096   0.00140  -0.01194   0.00020
  42        6D-2       -0.00186   0.00044  -0.00302  -0.00057  -0.00402
  43 4   C  1S         -0.00000   0.00000  -0.00000   0.04037  -0.03234
  44        2S          0.00000  -0.00000   0.00001  -0.07420   0.06801
  45        3S          0.00000   0.00002  -0.00002  -0.59221   0.90862
  46        4PX         0.01365   0.00842   0.01438  -0.09884   0.14907
  47        4PY        -0.03154  -0.01944  -0.03323   0.05648  -0.07657
  48        4PZ        -0.29244  -0.18028  -0.30811  -0.01071   0.01522
  49        5PX         0.00996   0.01225   0.02148  -0.26397   0.41900
  50        5PY        -0.02302  -0.02832  -0.04959   0.14933  -0.32687
  51        5PZ        -0.21344  -0.26259  -0.45977  -0.02843   0.05481
  52        6D 0        0.00205   0.00250  -0.00312  -0.00058  -0.00284
  53        6D+1       -0.00182  -0.01639  -0.00112   0.00136   0.00012
  54        6D-1       -0.01162  -0.02030   0.01601   0.00012  -0.00031
  55        6D+2        0.00135   0.00297  -0.00169   0.00623   0.00141
  56        6D-2        0.00036  -0.00081  -0.00089  -0.00945   0.00164
  57 5   C  1S         -0.00000  -0.00000   0.00000   0.04037  -0.03234
  58        2S          0.00000   0.00000  -0.00001  -0.07420   0.06801
  59        3S          0.00001  -0.00000   0.00001  -0.59221   0.90865
  60        4PX         0.01365   0.00842  -0.01439  -0.09623   0.14552
  61        4PY        -0.03152  -0.01944   0.03322  -0.06171   0.08447
  62        4PZ        -0.29237  -0.18027   0.30812   0.00216  -0.00231
  63        5PX         0.00996   0.01227  -0.02149  -0.25707   0.40409
  64        5PY        -0.02301  -0.02831   0.04956  -0.16332   0.34896
  65        5PZ        -0.21340  -0.26257   0.45979   0.00560  -0.01875
  66        6D 0       -0.00236  -0.00504  -0.00300  -0.00074  -0.00282
  67        6D+1       -0.00222  -0.01707   0.00057  -0.00078   0.00046
  68        6D-1        0.01150   0.01924   0.01606   0.00091  -0.00043
  69        6D+2       -0.00115  -0.00131  -0.00177   0.00528   0.00156
  70        6D-2       -0.00079  -0.00277  -0.00071   0.01002  -0.00145
  71 6   C  1S          0.00000   0.00000  -0.00000   0.03621  -0.00000
  72        2S         -0.00000  -0.00000   0.00000  -0.06544   0.00000
  73        3S          0.00000   0.00000  -0.00004  -0.52371   0.00001
  74        4PX        -0.00001  -0.01686   0.00000   0.00222   0.00688
  75        4PY         0.00000   0.03895  -0.00000  -0.10087   0.00019
  76        4PZ         0.00007   0.36126  -0.00001   0.01098   0.00030
  77        5PX        -0.00000  -0.02431   0.00000   0.00556  -0.17593
  78        5PY         0.00000   0.05617   0.00002  -0.25184  -0.00471
  79        5PZ         0.00005   0.52102  -0.00001   0.02741  -0.00771
  80        6D 0       -0.00132  -0.00170   0.00215  -0.00104  -0.00003
  81        6D+1       -0.01740  -0.00015   0.02827  -0.00040  -0.00044
  82        6D-1       -0.00055   0.00890   0.00089  -0.00152   0.00016
  83        6D+2        0.00087  -0.00096  -0.00140  -0.01194  -0.00020
  84        6D-2       -0.00186  -0.00044   0.00302  -0.00057   0.00402
  85 7   H  1S         -0.00000   0.00000   0.00000   0.04025   0.00462
  86        2S         -0.00000   0.00001   0.00002   0.84121   1.18214
  87        3PX        -0.00050   0.00042   0.00078  -0.00237   0.00223
  88        3PY         0.00115  -0.00097  -0.00181   0.00099  -0.00102
  89        3PZ         0.01065  -0.00903  -0.01676  -0.00022   0.00021
  90 8   H  1S          0.00000   0.00000  -0.00001   0.04025   0.00462
  91        2S          0.00000   0.00001  -0.00003   0.84121   1.18216
  92        3PX        -0.00050   0.00042  -0.00078  -0.00233   0.00218
  93        3PY         0.00115  -0.00097   0.00181  -0.00112   0.00114
  94        3PZ         0.01064  -0.00902   0.01676   0.00001  -0.00002
  95 9   H  1S         -0.00001  -0.00000  -0.00000   0.03943  -0.00000
  96        2S         -0.00001  -0.00001   0.00000   0.74386   0.00002
  97        3PX         0.00000  -0.00080   0.00000   0.00005   0.00049
  98        3PY        -0.00000   0.00184  -0.00000  -0.00206   0.00001
  99        3PZ        -0.00000   0.01705  -0.00000   0.00022   0.00002
 100 10  H  1S         -0.00000  -0.00000  -0.00000   0.04025  -0.00462
 101        2S         -0.00000  -0.00001  -0.00002   0.84121  -1.18214
 102        3PX         0.00050   0.00042   0.00078   0.00237   0.00223
 103        3PY        -0.00115  -0.00097  -0.00181  -0.00099  -0.00102
 104        3PZ        -0.01065  -0.00903  -0.01676   0.00022   0.00021
 105 11  H  1S          0.00000  -0.00000   0.00001   0.04025  -0.00462
 106        2S          0.00000  -0.00001   0.00003   0.84121  -1.18216
 107        3PX         0.00050   0.00042  -0.00078   0.00233   0.00218
 108        3PY        -0.00115  -0.00097   0.00181   0.00112   0.00114
 109        3PZ        -0.01064  -0.00902   0.01676  -0.00001  -0.00002
 110 12  H  1S         -0.00001   0.00000   0.00000   0.03943   0.00000
 111        2S         -0.00001   0.00001  -0.00000   0.74386  -0.00002
 112        3PX        -0.00000  -0.00080   0.00000  -0.00005   0.00049
 113        3PY         0.00000   0.00184  -0.00000   0.00206   0.00001
 114        3PZ         0.00000   0.01705  -0.00000  -0.00022   0.00002
                          26        27        28        29        30
                           V         V         V         V         V
     Eigenvalues --     0.27184   0.30364   0.30786   0.32473   0.35646
   1 1   C  1S         -0.02194   0.06041  -0.03414   0.05488   0.00000
   2        2S          0.04579  -0.12387   0.07134  -0.11433   0.00000
   3        3S          0.49926  -1.11767   0.64450   0.70989   0.00002
   4        4PX        -0.08694   0.10789  -0.02977   0.05835   0.01322
   5        4PY         0.05391  -0.03031   0.06308  -0.03126  -0.03053
   6        4PZ        -0.00988   0.00830  -0.00820   0.00610  -0.28311
   7        5PX        -0.41008   0.72962  -0.25417   1.11272   0.02964
   8        5PY         0.03969  -0.24455   0.39864  -0.62326  -0.06851
   9        5PZ        -0.02344   0.06044  -0.05485   0.11916  -0.63525
  10        6D 0       -0.00136   0.00006  -0.00019  -0.00597   0.00238
  11        6D+1        0.00020  -0.00120   0.00097  -0.00043   0.01293
  12        6D-1       -0.00070  -0.00062  -0.00070  -0.00130  -0.00698
  13        6D+2       -0.00310  -0.00897  -0.00186  -0.00445   0.00016
  14        6D-2       -0.00209   0.00724  -0.00962   0.00661   0.00173
  15 2   C  1S          0.02194  -0.06040  -0.03414  -0.05488  -0.00000
  16        2S         -0.04579   0.12386   0.07136   0.11433  -0.00000
  17        3S         -0.49923   1.11762   0.64463  -0.70987  -0.00003
  18        4PX         0.08445  -0.10643  -0.02696  -0.05690  -0.01322
  19        4PY         0.05851  -0.03605  -0.06460  -0.03435   0.03053
  20        4PZ        -0.00236  -0.00108   0.00571   0.00104   0.28311
  21        5PX         0.40783  -0.71794  -0.23637  -1.08391  -0.02964
  22        5PY         0.06162  -0.28335  -0.41184  -0.68221   0.06850
  23        5PZ         0.01241  -0.00297   0.03337   0.02295   0.63525
  24        6D 0        0.00139  -0.00018  -0.00035   0.00586   0.00044
  25        6D+1        0.00023  -0.00048  -0.00112  -0.00105  -0.01268
  26        6D-1        0.00054   0.00125   0.00008   0.00185  -0.00779
  27        6D+2        0.00329   0.00822  -0.00279   0.00378   0.00143
  28        6D-2       -0.00181   0.00808   0.00939   0.00691  -0.00100
  29 3   C  1S          0.03351  -0.00000   0.07257   0.05808  -0.00000
  30        2S         -0.06939   0.00001  -0.14567  -0.11819   0.00000
  31        3S         -1.09340   0.00007  -1.37387   0.58312   0.00001
  32        4PX        -0.00408   0.04703  -0.00276  -0.00184   0.01275
  33        4PY         0.18488   0.00125   0.12516   0.08349  -0.02945
  34        4PZ        -0.02012   0.00205  -0.01362  -0.00909  -0.27315
  35        5PX        -0.01178   0.24117  -0.01919  -0.02943   0.02905
  36        5PY         0.53391   0.00642   0.87082   1.33420  -0.06716
  37        5PZ        -0.05812   0.01057  -0.09479  -0.14523  -0.62276
  38        6D 0        0.00299   0.00006  -0.00131  -0.00658  -0.00282
  39        6D+1       -0.00030   0.00078   0.00058   0.00084  -0.00025
  40        6D-1        0.00041  -0.00029   0.00103  -0.00041   0.01477
  41        6D+2       -0.00135   0.00035   0.01146   0.00754  -0.00160
  42        6D-2       -0.00009  -0.00713   0.00057   0.00042  -0.00073
  43 4   C  1S          0.02194   0.06041  -0.03414  -0.05488   0.00000
  44        2S         -0.04579  -0.12387   0.07134   0.11433   0.00000
  45        3S         -0.49926  -1.11767   0.64450  -0.70989   0.00002
  46        4PX        -0.08694  -0.10789   0.02977   0.05835  -0.01322
  47        4PY         0.05391   0.03031  -0.06308  -0.03126   0.03053
  48        4PZ        -0.00988  -0.00830   0.00820   0.00610   0.28311
  49        5PX        -0.41008  -0.72962   0.25417   1.11272  -0.02964
  50        5PY         0.03969   0.24455  -0.39864  -0.62326   0.06851
  51        5PZ        -0.02344  -0.06044   0.05485   0.11916   0.63525
  52        6D 0        0.00136   0.00006  -0.00019   0.00597   0.00238
  53        6D+1       -0.00020  -0.00120   0.00097   0.00043   0.01293
  54        6D-1        0.00070  -0.00062  -0.00070   0.00130  -0.00698
  55        6D+2        0.00310  -0.00897  -0.00186   0.00445   0.00016
  56        6D-2        0.00209   0.00724  -0.00962  -0.00661   0.00173
  57 5   C  1S         -0.02194  -0.06040  -0.03414   0.05488  -0.00000
  58        2S          0.04579   0.12386   0.07136  -0.11433  -0.00000
  59        3S          0.49923   1.11762   0.64463   0.70987  -0.00003
  60        4PX         0.08445   0.10643   0.02696  -0.05690   0.01322
  61        4PY         0.05851   0.03605   0.06460  -0.03435  -0.03053
  62        4PZ        -0.00236   0.00108  -0.00571   0.00104  -0.28311
  63        5PX         0.40783   0.71794   0.23637  -1.08391   0.02964
  64        5PY         0.06162   0.28335   0.41184  -0.68221  -0.06850
  65        5PZ         0.01241   0.00297  -0.03337   0.02295  -0.63525
  66        6D 0       -0.00139  -0.00018  -0.00035  -0.00586   0.00044
  67        6D+1       -0.00023  -0.00048  -0.00112   0.00105  -0.01268
  68        6D-1       -0.00054   0.00125   0.00008  -0.00185  -0.00779
  69        6D+2       -0.00329   0.00822  -0.00279  -0.00378   0.00143
  70        6D-2        0.00181   0.00808   0.00939  -0.00691  -0.00100
  71 6   C  1S         -0.03351  -0.00000   0.07257  -0.05808  -0.00000
  72        2S          0.06939   0.00001  -0.14567   0.11819   0.00000
  73        3S          1.09340   0.00007  -1.37387  -0.58312   0.00001
  74        4PX        -0.00408  -0.04703   0.00276  -0.00184  -0.01275
  75        4PY         0.18488  -0.00125  -0.12516   0.08349   0.02945
  76        4PZ        -0.02012  -0.00205   0.01362  -0.00909   0.27315
  77        5PX        -0.01178  -0.24117   0.01919  -0.02943  -0.02905
  78        5PY         0.53391  -0.00642  -0.87082   1.33420   0.06716
  79        5PZ        -0.05812  -0.01057   0.09479  -0.14523   0.62276
  80        6D 0       -0.00299   0.00006  -0.00131   0.00658  -0.00282
  81        6D+1        0.00030   0.00078   0.00058  -0.00084  -0.00025
  82        6D-1       -0.00041  -0.00029   0.00103   0.00041   0.01477
  83        6D+2        0.00135   0.00035   0.01146  -0.00754  -0.00160
  84        6D-2        0.00009  -0.00713   0.00057  -0.00042  -0.00073
  85 7   H  1S         -0.00478  -0.00822   0.00814   0.04142   0.00001
  86        2S         -0.76432   1.41082  -0.77712   1.24534  -0.00002
  87        3PX        -0.00102   0.00567   0.00129  -0.00076   0.00099
  88        3PY         0.00103   0.00160   0.00773   0.00054  -0.00228
  89        3PZ        -0.00016   0.00009  -0.00077  -0.00009  -0.02116
  90 8   H  1S          0.00478   0.00822   0.00814  -0.04142  -0.00001
  91        2S          0.76429  -1.41074  -0.77728  -1.24536   0.00003
  92        3PX         0.00097  -0.00574   0.00162   0.00073  -0.00099
  93        3PY         0.00108   0.00129  -0.00765   0.00058   0.00228
  94        3PZ        -0.00007  -0.00041   0.00090  -0.00003   0.02116
  95 9   H  1S          0.00021   0.00000  -0.00810   0.04038   0.00000
  96        2S          1.28831  -0.00009   1.66292   1.38529  -0.00001
  97        3PX        -0.00009   0.00783  -0.00013  -0.00001   0.00090
  98        3PY         0.00390   0.00021   0.00582   0.00033  -0.00209
  99        3PZ        -0.00042   0.00034  -0.00063  -0.00004  -0.01936
 100 10  H  1S          0.00478  -0.00822   0.00814  -0.04142   0.00001
 101        2S          0.76432   1.41082  -0.77712  -1.24534  -0.00002
 102        3PX        -0.00102  -0.00567  -0.00129  -0.00076  -0.00099
 103        3PY         0.00103  -0.00160  -0.00773   0.00054   0.00228
 104        3PZ        -0.00016  -0.00009   0.00077  -0.00009   0.02116
 105 11  H  1S         -0.00478   0.00822   0.00814   0.04142  -0.00001
 106        2S         -0.76429  -1.41074  -0.77728   1.24536   0.00003
 107        3PX         0.00097   0.00574  -0.00162   0.00073   0.00099
 108        3PY         0.00108  -0.00129   0.00765   0.00058  -0.00228
 109        3PZ        -0.00007   0.00041  -0.00090  -0.00003  -0.02116
 110 12  H  1S         -0.00021   0.00000  -0.00810  -0.04038   0.00000
 111        2S         -1.28831  -0.00009   1.66292  -1.38529  -0.00001
 112        3PX        -0.00009  -0.00783   0.00013  -0.00001  -0.00090
 113        3PY         0.00390  -0.00021  -0.00582   0.00033   0.00209
 114        3PZ        -0.00042  -0.00034   0.00063  -0.00004   0.01936
                          31        32        33        34        35
                           V         V         V         V         V
     Eigenvalues --     0.49817   0.50073   0.51418   0.51720   0.57364
   1 1   C  1S          0.05201   0.08804   0.01302  -0.02428   0.08645
   2        2S         -0.13013  -0.20936  -0.00763   0.02523  -0.63220
   3        3S         -1.89245  -3.27994  -1.33508   2.41063   0.83313
   4        4PX        -0.09414  -0.14702   0.07192   0.14008  -0.03458
   5        4PY         0.03536   0.09169   0.23286   0.07360   0.02439
   6        4PZ        -0.00821  -0.01675  -0.02175  -0.00140  -0.00425
   7        5PX        -1.26892  -0.94609   0.92704   0.79809  -0.08345
   8        5PY        -0.53927   1.27444   1.90306   0.95491   0.08150
   9        5PZ        -0.00106  -0.18159  -0.16196  -0.06573  -0.01268
  10        6D 0       -0.00302  -0.00570  -0.00407   0.00586   0.03690
  11        6D+1       -0.00048   0.00059  -0.00168   0.00422  -0.00292
  12        6D-1        0.00312  -0.00330  -0.00392   0.00018   0.00689
  13        6D+2        0.02609  -0.01671  -0.03127   0.00884  -0.00043
  14        6D-2        0.01781  -0.00830   0.00526  -0.03965  -0.00118
  15 2   C  1S          0.05200  -0.08804  -0.01303  -0.02428   0.08645
  16        2S         -0.13011   0.20936   0.00762   0.02522  -0.63222
  17        3S         -1.89212   3.28012   1.33550   2.41038   0.83309
  18        4PX        -0.09246   0.14281  -0.08208   0.14317  -0.03347
  19        4PY        -0.04036   0.09946   0.22871  -0.06604  -0.02621
  20        4PZ         0.00003  -0.00406  -0.02849   0.01380   0.00126
  21        5PX        -1.29112   0.88889  -1.00972   0.83938  -0.07977
  22        5PY         0.47072   1.32363   1.85095  -0.91126  -0.08590
  23        5PZ        -0.11101  -0.10124  -0.24671   0.13743   0.00554
  24        6D 0       -0.00275   0.00583   0.00396   0.00520   0.03689
  25        6D+1        0.00315   0.00106   0.00020  -0.00455  -0.00310
  26        6D-1        0.00177   0.00268   0.00447   0.00344   0.00695
  27        6D+2        0.02770   0.01744   0.03061   0.00493  -0.00051
  28        6D-2       -0.01514  -0.00673   0.00822   0.04023   0.00052
  29 3   C  1S         -0.09803   0.00001  -0.02869   0.00000   0.08943
  30        2S          0.21842  -0.00002   0.02004  -0.00001  -0.62236
  31        3S          3.82563  -0.00016   2.87751  -0.00016   0.57552
  32        4PX        -0.00435   0.01344  -0.00207   0.27107   0.00099
  33        4PY         0.19728   0.00035   0.09482   0.00726  -0.04509
  34        4PZ        -0.02147   0.00059  -0.01032   0.01186   0.00491
  35        5PX        -0.03737   1.19770  -0.00675   2.43759   0.00437
  36        5PY         1.69669   0.03205   0.31502   0.06538  -0.19847
  37        5PZ        -0.18470   0.05242  -0.03429   0.10669   0.02160
  38        6D 0        0.00854   0.00029   0.00885   0.00021   0.03550
  39        6D+1       -0.00077   0.00391  -0.00241   0.00283  -0.00291
  40        6D-1        0.00140  -0.00146  -0.00294  -0.00105   0.00662
  41        6D+2       -0.00190   0.00174  -0.04145   0.00126  -0.00083
  42        6D-2       -0.00017  -0.03562  -0.00210  -0.02574  -0.00034
  43 4   C  1S          0.05201   0.08804  -0.01302   0.02428   0.08645
  44        2S         -0.13013  -0.20936   0.00763  -0.02523  -0.63220
  45        3S         -1.89245  -3.27994   1.33508  -2.41063   0.83313
  46        4PX         0.09414   0.14702   0.07192   0.14008   0.03458
  47        4PY        -0.03536  -0.09169   0.23286   0.07360  -0.02439
  48        4PZ         0.00821   0.01675  -0.02175  -0.00140   0.00425
  49        5PX         1.26892   0.94609   0.92704   0.79809   0.08345
  50        5PY         0.53927  -1.27444   1.90306   0.95491  -0.08150
  51        5PZ         0.00106   0.18159  -0.16196  -0.06573   0.01268
  52        6D 0       -0.00302  -0.00570   0.00407  -0.00586   0.03690
  53        6D+1       -0.00048   0.00059   0.00168  -0.00422  -0.00292
  54        6D-1        0.00312  -0.00330   0.00392  -0.00018   0.00689
  55        6D+2        0.02609  -0.01671   0.03127  -0.00884  -0.00043
  56        6D-2        0.01781  -0.00830  -0.00526   0.03965  -0.00118
  57 5   C  1S          0.05200  -0.08804   0.01303   0.02428   0.08645
  58        2S         -0.13011   0.20936  -0.00762  -0.02522  -0.63222
  59        3S         -1.89212   3.28012  -1.33550  -2.41038   0.83309
  60        4PX         0.09246  -0.14281  -0.08208   0.14317   0.03347
  61        4PY         0.04036  -0.09946   0.22871  -0.06604   0.02621
  62        4PZ        -0.00003   0.00406  -0.02849   0.01380  -0.00126
  63        5PX         1.29112  -0.88889  -1.00972   0.83938   0.07977
  64        5PY        -0.47072  -1.32363   1.85095  -0.91126   0.08590
  65        5PZ         0.11101   0.10124  -0.24671   0.13743  -0.00554
  66        6D 0       -0.00275   0.00583  -0.00396  -0.00520   0.03689
  67        6D+1        0.00315   0.00106  -0.00020   0.00455  -0.00310
  68        6D-1        0.00177   0.00268  -0.00447  -0.00344   0.00695
  69        6D+2        0.02770   0.01744  -0.03061  -0.00493  -0.00051
  70        6D-2       -0.01514  -0.00673  -0.00822  -0.04023   0.00052
  71 6   C  1S         -0.09803   0.00001   0.02869  -0.00000   0.08943
  72        2S          0.21842  -0.00002  -0.02004   0.00001  -0.62236
  73        3S          3.82563  -0.00016  -2.87751   0.00016   0.57552
  74        4PX         0.00435  -0.01344  -0.00207   0.27107  -0.00099
  75        4PY        -0.19728  -0.00035   0.09482   0.00726   0.04509
  76        4PZ         0.02147  -0.00059  -0.01032   0.01186  -0.00491
  77        5PX         0.03737  -1.19770  -0.00675   2.43759  -0.00437
  78        5PY        -1.69669  -0.03205   0.31502   0.06538   0.19847
  79        5PZ         0.18470  -0.05242  -0.03429   0.10669  -0.02160
  80        6D 0        0.00854   0.00029  -0.00885  -0.00021   0.03550
  81        6D+1       -0.00077   0.00391   0.00241  -0.00283  -0.00291
  82        6D-1        0.00140  -0.00146   0.00294   0.00105   0.00662
  83        6D+2       -0.00190   0.00174   0.04145  -0.00126  -0.00083
  84        6D-2       -0.00017  -0.03562   0.00210   0.02574  -0.00034
  85 7   H  1S         -0.00958  -0.00968  -0.08093   0.15140  -0.19366
  86        2S         -0.28423  -0.46544   0.17662  -0.29264  -0.26899
  87        3PX        -0.01428   0.00591   0.01562  -0.01117   0.00271
  88        3PY        -0.02317   0.01483   0.00831   0.01611  -0.00052
  89        3PZ         0.00183  -0.00132  -0.00017  -0.00226   0.00018
  90 8   H  1S         -0.00958   0.00967   0.08094   0.15138  -0.19366
  91        2S         -0.28418   0.46547  -0.17667  -0.29262  -0.26901
  92        3PX        -0.01529  -0.00656  -0.01597  -0.01044   0.00269
  93        3PY         0.02238   0.01449   0.00746  -0.01670   0.00066
  94        3PZ        -0.00313  -0.00187  -0.00155   0.00131   0.00005
  95 9   H  1S          0.00329  -0.00000   0.15504  -0.00001  -0.18764
  96        2S          0.56311  -0.00003  -0.31807   0.00002  -0.27594
  97        3PX        -0.00006   0.02996   0.00040   0.01497  -0.00004
  98        3PY         0.00300   0.00080  -0.01798   0.00040   0.00191
  99        3PZ        -0.00033   0.00131   0.00196   0.00065  -0.00021
 100 10  H  1S         -0.00958  -0.00968   0.08093  -0.15140  -0.19366
 101        2S         -0.28423  -0.46544  -0.17662   0.29264  -0.26899
 102        3PX         0.01428  -0.00591   0.01562  -0.01117  -0.00271
 103        3PY         0.02317  -0.01483   0.00831   0.01611   0.00052
 104        3PZ        -0.00183   0.00132  -0.00017  -0.00226  -0.00018
 105 11  H  1S         -0.00958   0.00967  -0.08094  -0.15138  -0.19366
 106        2S         -0.28418   0.46547   0.17667   0.29262  -0.26901
 107        3PX         0.01529   0.00656  -0.01597  -0.01044  -0.00269
 108        3PY        -0.02238  -0.01449   0.00746  -0.01670  -0.00066
 109        3PZ         0.00313   0.00187  -0.00155   0.00131  -0.00005
 110 12  H  1S          0.00329  -0.00000  -0.15504   0.00001  -0.18764
 111        2S          0.56311  -0.00003   0.31807  -0.00002  -0.27594
 112        3PX         0.00006  -0.02996   0.00040   0.01497   0.00004
 113        3PY        -0.00300  -0.00080  -0.01798   0.00040  -0.00191
 114        3PZ         0.00033  -0.00131   0.00196   0.00065   0.00021
                          36        37        38        39        40
                           V         V         V         V         V
     Eigenvalues --     0.60873   0.61956   0.62403   0.64332   0.67219
   1 1   C  1S          0.01670   0.07194  -0.04468   0.05181   0.10363
   2        2S         -0.15435  -0.65371   0.38948  -0.26976  -0.13856
   3        3S          0.43182   1.84615  -0.87165   0.15274  -8.16135
   4        4PX         0.13225  -0.08371   0.07196  -0.02913  -0.01938
   5        4PY         0.27380   0.00854   0.02841  -0.00060   0.01705
   6        4PZ        -0.02335  -0.00483   0.00032  -0.00129  -0.00274
   7        5PX        -0.17549   0.29693   0.42288   0.07862  -3.18990
   8        5PY        -0.32993   0.48346   0.62222  -0.04613   1.77167
   9        5PZ         0.02739  -0.03828  -0.04737   0.00865  -0.33990
  10        6D 0        0.00952   0.04229  -0.02519  -0.01931  -0.01483
  11        6D+1       -0.00235  -0.00768   0.00415   0.01041   0.00272
  12        6D-1        0.00579   0.00768  -0.00185  -0.00229  -0.00251
  13        6D+2        0.02552  -0.01696   0.02973   0.04069   0.00747
  14        6D-2        0.02541   0.03167  -0.00655  -0.06415  -0.01072
  15 2   C  1S          0.01670   0.07195   0.04467   0.05181  -0.10362
  16        2S         -0.15439  -0.65379  -0.38934  -0.26977   0.13853
  17        3S          0.43184   1.84602   0.87124   0.15283   8.16140
  18        4PX         0.14416  -0.08325  -0.07313  -0.02912   0.01860
  19        4PY        -0.26638  -0.01303   0.02455  -0.00097   0.01806
  20        4PZ         0.03545  -0.00249  -0.00605  -0.00124  -0.00107
  21        5PX        -0.18990   0.31775  -0.44986   0.07657   3.10800
  22        5PY         0.32017  -0.46698   0.59887   0.05027   1.94061
  23        5PZ        -0.04339   0.06518  -0.08559  -0.00185  -0.06424
  24        6D 0        0.00992   0.04283   0.02531  -0.02040   0.01502
  25        6D+1        0.00296  -0.00048  -0.00235  -0.00412  -0.00027
  26        6D-1        0.00382   0.00499   0.00118   0.00312   0.00159
[...]
    8. BD ( 2) C  1- C  2      34. BD*( 2) C  5- C  6     10.73    0.31   0.073
    8. BD ( 2) C  1- C  2      41. RY ( 5) C  1            0.25    1.79   0.027
    8. BD ( 2) C  1- C  2      50. RY ( 5) C  2            0.25    1.79   0.027
    8. BD ( 2) C  1- C  2      57. RY ( 3) C  3            0.89    0.89   0.036
    8. BD ( 2) C  1- C  2      59. RY ( 5) C  3            0.33    2.20   0.034
    8. BD ( 2) C  1- C  2      84. RY ( 3) C  6            0.89    0.89   0.036
    8. BD ( 2) C  1- C  2      86. RY ( 5) C  6            0.33    2.20   0.034
    9. BD ( 1) C  1- C  6      22. BD*( 1) C  1- C  2      1.52    1.17   0.053
    9. BD ( 1) C  1- C  6      25. BD*( 1) C  1- H  7      0.77    1.03   0.035
    9. BD ( 1) C  1- C  6      27. BD*( 1) C  2- H  8      1.26    1.03   0.045
    9. BD ( 1) C  1- C  6      33. BD*( 1) C  5- C  6      1.57    1.18   0.055
    9. BD ( 1) C  1- C  6      35. BD*( 1) C  5- H 11      1.21    1.03   0.044
    9. BD ( 1) C  1- C  6      36. BD*( 1) C  6- H 12      0.94    1.04   0.040
    9. BD ( 1) C  1- C  6      46. RY ( 1) C  2            0.56    1.73   0.039
    9. BD ( 1) C  1- C  6      47. RY ( 2) C  2            0.38    1.25   0.028
    9. BD ( 1) C  1- C  6      73. RY ( 1) C  5            0.50    1.73   0.037
    9. BD ( 1) C  1- C  6      74. RY ( 2) C  5            0.46    1.25   0.030
    9. BD ( 1) C  1- C  6      91. RY ( 1) H  7            0.53    0.92   0.028
    9. BD ( 1) C  1- C  6     111. RY ( 1) H 12            0.57    0.94   0.029
   10. BD ( 1) C  1- H  7      22. BD*( 1) C  1- C  2      0.35    1.09   0.025
   10. BD ( 1) C  1- H  7      24. BD*( 1) C  1- C  6      0.33    1.11   0.024
   10. BD ( 1) C  1- H  7      26. BD*( 1) C  2- C  3      1.54    1.11   0.052
   10. BD ( 1) C  1- H  7      33. BD*( 1) C  5- C  6      1.60    1.11   0.053
   10. BD ( 1) C  1- H  7      46. RY ( 1) C  2            0.31    1.65   0.029
   10. BD ( 1) C  1- H  7      82. RY ( 1) C  6            0.29    1.66   0.028
   11. BD ( 1) C  2- C  3      22. BD*( 1) C  1- C  2      1.52    1.17   0.053
   11. BD ( 1) C  2- C  3      25. BD*( 1) C  1- H  7      1.26    1.03   0.045
   11. BD ( 1) C  2- C  3      27. BD*( 1) C  2- H  8      0.77    1.03   0.035
   11. BD ( 1) C  2- C  3      28. BD*( 1) C  3- C  4      1.57    1.18   0.055
   11. BD ( 1) C  2- C  3      30. BD*( 1) C  3- H  9      0.94    1.04   0.040
   11. BD ( 1) C  2- C  3      32. BD*( 1) C  4- H 10      1.21    1.03   0.044
   11. BD ( 1) C  2- C  3      37. RY ( 1) C  1            0.56    1.73   0.039
   11. BD ( 1) C  2- C  3      38. RY ( 2) C  1            0.38    1.25   0.028
   11. BD ( 1) C  2- C  3      64. RY ( 1) C  4            0.50    1.73   0.037
   11. BD ( 1) C  2- C  3      65. RY ( 2) C  4            0.46    1.25   0.030
   11. BD ( 1) C  2- C  3      95. RY ( 1) H  8            0.53    0.92   0.028
   11. BD ( 1) C  2- C  3      99. RY ( 1) H  9            0.57    0.94   0.029
   12. BD ( 1) C  2- H  8      22. BD*( 1) C  1- C  2      0.35    1.09   0.025
   12. BD ( 1) C  2- H  8      24. BD*( 1) C  1- C  6      1.54    1.11   0.052
   12. BD ( 1) C  2- H  8      26. BD*( 1) C  2- C  3      0.33    1.11   0.024
   12. BD ( 1) C  2- H  8      28. BD*( 1) C  3- C  4      1.60    1.11   0.053
   12. BD ( 1) C  2- H  8      37. RY ( 1) C  1            0.31    1.65   0.029
   12. BD ( 1) C  2- H  8      55. RY ( 1) C  3            0.29    1.66   0.028
   13. BD ( 1) C  3- C  4      26. BD*( 1) C  2- C  3      1.57    1.18   0.055
   13. BD ( 1) C  3- C  4      27. BD*( 1) C  2- H  8      1.21    1.03   0.044
   13. BD ( 1) C  3- C  4      30. BD*( 1) C  3- H  9      0.94    1.04   0.040
   13. BD ( 1) C  3- C  4      31. BD*( 1) C  4- C  5      1.52    1.17   0.053
   13. BD ( 1) C  3- C  4      32. BD*( 1) C  4- H 10      0.77    1.03   0.035
   13. BD ( 1) C  3- C  4      35. BD*( 1) C  5- H 11      1.26    1.03   0.045
   13. BD ( 1) C  3- C  4      46. RY ( 1) C  2            0.50    1.73   0.037
   13. BD ( 1) C  3- C  4      47. RY ( 2) C  2            0.46    1.25   0.030
   13. BD ( 1) C  3- C  4      73. RY ( 1) C  5            0.56    1.73   0.039
   13. BD ( 1) C  3- C  4      74. RY ( 2) C  5            0.38    1.25   0.028
   13. BD ( 1) C  3- C  4      99. RY ( 1) H  9            0.57    0.94   0.029
   13. BD ( 1) C  3- C  4     103. RY ( 1) H 10            0.53    0.92   0.028
   14. BD ( 2) C  3- C  4      23. BD*( 2) C  1- C  2     10.20    0.27   0.067
   14. BD ( 2) C  3- C  4      34. BD*( 2) C  5- C  6     10.19    0.29   0.069
   14. BD ( 2) C  3- C  4      50. RY ( 5) C  2            0.69    1.77   0.044
   14. BD ( 2) C  3- C  4      66. RY ( 3) C  4            0.37    1.20   0.026
   14. BD ( 2) C  3- C  4      75. RY ( 3) C  5            1.36    1.20   0.051
   15. BD ( 1) C  3- H  9      22. BD*( 1) C  1- C  2      1.62    1.07   0.053
   15. BD ( 1) C  3- H  9      26. BD*( 1) C  2- C  3      0.41    1.08   0.027
   15. BD ( 1) C  3- H  9      28. BD*( 1) C  3- C  4      0.41    1.08   0.027
   15. BD ( 1) C  3- H  9      31. BD*( 1) C  4- C  5      1.62    1.07   0.053
   15. BD ( 1) C  3- H  9      46. RY ( 1) C  2            0.29    1.63   0.027
   15. BD ( 1) C  3- H  9      64. RY ( 1) C  4            0.29    1.63   0.027
   16. BD ( 1) C  4- C  5      28. BD*( 1) C  3- C  4      1.49    1.19   0.053
   16. BD ( 1) C  4- C  5      30. BD*( 1) C  3- H  9      1.23    1.05   0.045
   16. BD ( 1) C  4- C  5      32. BD*( 1) C  4- H 10      0.80    1.03   0.036
   16. BD ( 1) C  4- C  5      33. BD*( 1) C  5- C  6      1.49    1.19   0.053
   16. BD ( 1) C  4- C  5      35. BD*( 1) C  5- H 11      0.80    1.03   0.036
   16. BD ( 1) C  4- C  5      36. BD*( 1) C  6- H 12      1.23    1.05   0.045
   16. BD ( 1) C  4- C  5      55. RY ( 1) C  3            0.54    1.75   0.039
   16. BD ( 1) C  4- C  5      56. RY ( 2) C  3            0.38    1.27   0.028
   16. BD ( 1) C  4- C  5      82. RY ( 1) C  6            0.54    1.75   0.039
   16. BD ( 1) C  4- C  5      83. RY ( 2) C  6            0.38    1.27   0.028
   16. BD ( 1) C  4- C  5     103. RY ( 1) H 10            0.52    0.92   0.028
   16. BD ( 1) C  4- C  5     107. RY ( 1) H 11            0.52    0.92   0.028
   17. BD ( 1) C  4- H 10      26. BD*( 1) C  2- C  3      1.60    1.11   0.053
   17. BD ( 1) C  4- H 10      28. BD*( 1) C  3- C  4      0.33    1.11   0.024
   17. BD ( 1) C  4- H 10      31. BD*( 1) C  4- C  5      0.35    1.09   0.025
   17. BD ( 1) C  4- H 10      33. BD*( 1) C  5- C  6      1.54    1.11   0.052
   17. BD ( 1) C  4- H 10      55. RY ( 1) C  3            0.29    1.66   0.028
   17. BD ( 1) C  4- H 10      73. RY ( 1) C  5            0.31    1.65   0.029
   18. BD ( 1) C  5- C  6      24. BD*( 1) C  1- C  6      1.57    1.18   0.055
   18. BD ( 1) C  5- C  6      25. BD*( 1) C  1- H  7      1.21    1.03   0.044
   18. BD ( 1) C  5- C  6      31. BD*( 1) C  4- C  5      1.52    1.17   0.053
   18. BD ( 1) C  5- C  6      32. BD*( 1) C  4- H 10      1.26    1.03   0.045
   18. BD ( 1) C  5- C  6      35. BD*( 1) C  5- H 11      0.77    1.03   0.035
   18. BD ( 1) C  5- C  6      36. BD*( 1) C  6- H 12      0.94    1.04   0.040
   18. BD ( 1) C  5- C  6      37. RY ( 1) C  1            0.50    1.73   0.037
   18. BD ( 1) C  5- C  6      38. RY ( 2) C  1            0.46    1.25   0.030
   18. BD ( 1) C  5- C  6      64. RY ( 1) C  4            0.56    1.73   0.039
   18. BD ( 1) C  5- C  6      65. RY ( 2) C  4            0.38    1.25   0.028
   18. BD ( 1) C  5- C  6     107. RY ( 1) H 11            0.53    0.92   0.028
   18. BD ( 1) C  5- C  6     111. RY ( 1) H 12            0.57    0.94   0.029
   19. BD ( 2) C  5- C  6      23. BD*( 2) C  1- C  2     10.20    0.27   0.067
   19. BD ( 2) C  5- C  6      29. BD*( 2) C  3- C  4     10.19    0.29   0.069
   19. BD ( 2) C  5- C  6      41. RY ( 5) C  1            0.69    1.77   0.044
   19. BD ( 2) C  5- C  6      66. RY ( 3) C  4            1.36    1.20   0.051
   19. BD ( 2) C  5- C  6      75. RY ( 3) C  5            0.37    1.20   0.026
   20. BD ( 1) C  5- H 11      24. BD*( 1) C  1- C  6      1.60    1.11   0.053
   20. BD ( 1) C  5- H 11      28. BD*( 1) C  3- C  4      1.54    1.11   0.052
   20. BD ( 1) C  5- H 11      31. BD*( 1) C  4- C  5      0.35    1.09   0.025
   20. BD ( 1) C  5- H 11      33. BD*( 1) C  5- C  6      0.33    1.11   0.024
   20. BD ( 1) C  5- H 11      64. RY ( 1) C  4            0.31    1.65   0.029
   20. BD ( 1) C  5- H 11      82. RY ( 1) C  6            0.29    1.66   0.028
   21. BD ( 1) C  6- H 12      22. BD*( 1) C  1- C  2      1.62    1.07   0.053
   21. BD ( 1) C  6- H 12      24. BD*( 1) C  1- C  6      0.41    1.08   0.027
   21. BD ( 1) C  6- H 12      31. BD*( 1) C  4- C  5      1.62    1.07   0.053
   21. BD ( 1) C  6- H 12      33. BD*( 1) C  5- C  6      0.41    1.08   0.027
   21. BD ( 1) C  6- H 12      37. RY ( 1) C  1            0.29    1.63   0.027
   21. BD ( 1) C  6- H 12      73. RY ( 1) C  5            0.29    1.63   0.027


 NATURAL BOND ORBITALS (Summary):

                                                     Principal Delocalizations
           NBO                 Occupancy    Energy   (geminal,vicinal,remote)
 ===============================================================================
 Molecular unit  1  (C6H6)
 ------ Lewis --------------------------------------
    1. CR ( 1) C  1             0.99997    -9.95950
    2. CR ( 1) C  2             0.99997    -9.95950
    3. CR ( 1) C  3             0.99997    -9.92633
    4. CR ( 1) C  4             0.99997    -9.95950
    5. CR ( 1) C  5             0.99997    -9.95950
    6. CR ( 1) C  6             0.99997    -9.92633
    7. BD ( 1) C  1- C  2       0.98682    -0.35224  24(g),26(g),30(v),36(v)
                                                     25(g),27(g),55(v),82(v)
                                                     91(v),95(v),56(v),83(v)
    8. BD ( 2) C  1- C  2       0.85193    -0.02305  29(v),34(v),57(v),84(v)
                                                     59(v),86(v),41(g),50(g)
    9. BD ( 1) C  1- C  6       0.98628    -0.34738  33(g),22(g),27(v),35(v)
                                                     36(g),25(g),111(v),46(v)
                                                     91(v),73(v),74(v),47(v)
   10. BD ( 1) C  1- H  7       0.99064    -0.26923  33(v),26(v),22(g),24(g)
                                                     46(v),82(v)
   11. BD ( 1) C  2- C  3       0.98628    -0.34738  28(g),22(g),25(v),32(v)
                                                     30(g),27(g),99(v),37(v)
                                                     95(v),64(v),65(v),38(v)
   12. BD ( 1) C  2- H  8       0.99064    -0.26923  28(v),24(v),22(g),26(g)
                                                     37(v),55(v)
   13. BD ( 1) C  3- C  4       0.98628    -0.34738  26(g),31(g),35(v),27(v)
                                                     30(g),32(g),99(v),73(v)
                                                     103(v),46(v),47(v),74(v)
   14. BD ( 2) C  3- C  4       0.82218    -0.00807  23(v),34(v),75(v),50(v)
                                                     66(g)
   15. BD ( 1) C  3- H  9       0.98997    -0.24732  22(v),31(v),26(g),28(g)
                                                     46(v),64(v)
   16. BD ( 1) C  4- C  5       0.98682    -0.35224  28(g),33(g),30(v),36(v)
                                                     32(g),35(g),55(v),82(v)
                                                     103(v),107(v),56(v),83(v)
   17. BD ( 1) C  4- H 10       0.99064    -0.26923  26(v),33(v),31(g),28(g)
                                                     73(v),55(v)
   18. BD ( 1) C  5- C  6       0.98628    -0.34738  24(g),31(g),32(v),25(v)
                                                     36(g),35(g),111(v),64(v)
                                                     107(v),37(v),38(v),65(v)
   19. BD ( 2) C  5- C  6       0.82218    -0.00807  23(v),29(v),66(v),41(v)
                                                     75(g)
   20. BD ( 1) C  5- H 11       0.99064    -0.26923  24(v),28(v),31(g),33(g)
                                                     64(v),82(v)
   21. BD ( 1) C  6- H 12       0.98997    -0.24732  22(v),31(v),24(g),33(g)
                                                     37(v),73(v)
 ------ non-Lewis ----------------------------------
   22. BD*( 1) C  1- C  2       0.00949     0.82511
   23. BD*( 2) C  1- C  2       0.18776     0.26421
   24. BD*( 1) C  1- C  6       0.00926     0.83641
   25. BD*( 1) C  1- H  7       0.00844     0.68114
   26. BD*( 1) C  2- C  3       0.00926     0.83641
   27. BD*( 1) C  2- H  8       0.00844     0.68115
   28. BD*( 1) C  3- C  4       0.00926     0.83641
   29. BD*( 2) C  3- C  4       0.15540     0.28644
   30. BD*( 1) C  3- H  9       0.00855     0.69341
   31. BD*( 1) C  4- C  5       0.00949     0.82511
   32. BD*( 1) C  4- H 10       0.00844     0.68114
   33. BD*( 1) C  5- C  6       0.00926     0.83641
   34. BD*( 2) C  5- C  6       0.15540     0.28644
   35. BD*( 1) C  5- H 11       0.00844     0.68115
   36. BD*( 1) C  6- H 12       0.00855     0.69341
   37. RY ( 1) C  1             0.00257     1.38098
   38. RY ( 2) C  1             0.00112     0.89841
   39. RY ( 3) C  1             0.00053     1.24130
   40. RY ( 4) C  1             0.00039     0.79685
   41. RY ( 5) C  1             0.00024     1.76663
   42. RY ( 6) C  1             0.00006     2.61229
   43. RY ( 7) C  1             0.00002     2.53910
   44. RY ( 8) C  1             0.00000     2.44766
   45. RY ( 9) C  1             0.00000     2.07204
   46. RY ( 1) C  2             0.00257     1.38097
   47. RY ( 2) C  2             0.00112     0.89841
   48. RY ( 3) C  2             0.00053     1.24132
   49. RY ( 4) C  2             0.00039     0.79685
   50. RY ( 5) C  2             0.00024     1.76661
   51. RY ( 6) C  2             0.00006     2.61229
   52. RY ( 7) C  2             0.00002     2.53910
   53. RY ( 8) C  2             0.00000     2.44766
   54. RY ( 9) C  2             0.00000     2.07204
   55. RY ( 1) C  3             0.00248     1.39334
   56. RY ( 2) C  3             0.00100     0.91693
   57. RY ( 3) C  3             0.00043     0.86801
   58. RY ( 4) C  3             0.00037     0.78976
   59. RY ( 5) C  3             0.00028     2.17747
   60. RY ( 6) C  3             0.00005     2.62745
   61. RY ( 7) C  3             0.00002     2.58367
   62. RY ( 8) C  3             0.00000     2.47409
   63. RY ( 9) C  3             0.00000     2.11372
   64. RY ( 1) C  4             0.00257     1.38098
   65. RY ( 2) C  4             0.00112     0.89841
   66. RY ( 3) C  4             0.00047     1.18936
   67. RY ( 4) C  4             0.00039     0.79685
   68. RY ( 5) C  4             0.00025     1.81956
   69. RY ( 6) C  4             0.00006     2.61229
   70. RY ( 7) C  4             0.00002     2.53910
   71. RY ( 8) C  4             0.00000     2.44766
   72. RY ( 9) C  4             0.00000     2.07204
   73. RY ( 1) C  5             0.00257     1.38097
   74. RY ( 2) C  5             0.00112     0.89841
   75. RY ( 3) C  5             0.00047     1.18939
   76. RY ( 4) C  5             0.00039     0.79685
   77. RY ( 5) C  5             0.00025     1.81953
   78. RY ( 6) C  5             0.00006     2.61229
   79. RY ( 7) C  5             0.00002     2.53910
   80. RY ( 8) C  5             0.00000     2.44766
   81. RY ( 9) C  5             0.00000     2.07204
   82. RY ( 1) C  6             0.00248     1.39334
   83. RY ( 2) C  6             0.00100     0.91693
   84. RY ( 3) C  6             0.00043     0.86801
   85. RY ( 4) C  6             0.00037     0.78976
   86. RY ( 5) C  6             0.00028     2.17747
   87. RY ( 6) C  6             0.00005     2.62745
   88. RY ( 7) C  6             0.00002     2.58367
   89. RY ( 8) C  6             0.00000     2.47409
   90. RY ( 9) C  6             0.00000     2.11372
   91. RY ( 1) H  7             0.00122     0.56854
   92. RY ( 2) H  7             0.00013     1.86956
   93. RY ( 3) H  7             0.00003     2.16555
   94. RY ( 4) H  7             0.00002     2.55427
   95. RY ( 1) H  8             0.00122     0.56854
   96. RY ( 2) H  8             0.00013     1.86956
   97. RY ( 3) H  8             0.00003     2.16556
   98. RY ( 4) H  8             0.00002     2.55428
   99. RY ( 1) H  9             0.00119     0.59037
  100. RY ( 2) H  9             0.00010     1.88941
  101. RY ( 3) H  9             0.00002     2.17958
  102. RY ( 4) H  9             0.00002     2.56723
  103. RY ( 1) H 10             0.00122     0.56854
  104. RY ( 2) H 10             0.00013     1.86956
  105. RY ( 3) H 10             0.00003     2.16555
  106. RY ( 4) H 10             0.00002     2.55427
  107. RY ( 1) H 11             0.00122     0.56854
  108. RY ( 2) H 11             0.00013     1.86956
  109. RY ( 3) H 11             0.00003     2.16556
  110. RY ( 4) H 11             0.00002     2.55428
  111. RY ( 1) H 12             0.00119     0.59037
  112. RY ( 2) H 12             0.00010     1.88941
  113. RY ( 3) H 12             0.00002     2.17958
  114. RY ( 4) H 12             0.00002     2.56723
          -------------------------------
                 Total Lewis   20.35739  ( 96.9399%)
           Valence non-Lewis    0.60544  (  2.8830%)
           Rydberg non-Lewis    0.03718  (  0.1770%)
          -------------------------------
               Total unit  1   21.00000  (100.0000%)
              Charge unit  1    0.00000

 $CHOOSE
  ALPHA
   LONE 3 1 6 1 END
   BOND D 1 2 S 1 6 S 1 7 S 2 3 S 2 8 S 3 4 S 3 9 D 4 5 S 4 10 S 5 6 S 5 11
        S 6 12 END
  END
  BETA
   BOND D 1 2 S 1 6 S 1 7 S 2 3 S 2 8 D 3 4 S 3 9 S 4 5 S 4 10 D 5 6 S 5 11
        S 6 12 END
  END
 $END

 Maximum scratch memory used by NBO was 392802 words (3.00 MB)
 Maximum scratch memory used by G16NBO was 100370 words (0.77 MB)

 Opening RunExU unformatted file "/scratch/yanfeig/Gau-35249.EUF"
 Read unf file /scratch/yanfeig/Gau-35249.EUF:
 Label Gaussian matrix elements                                         IVers= 1 NLab= 2 Version=EM64L-G16RevB.01
 Title None                                                            
 NAtoms=    12 NBasis=   114 NBsUse=   114 ICharg=    -1 Multip=     2 NE=    43 Len12L=8 Len4L=8 IOpCl= 0 ICGU= -1
 GAUSSIAN SCALARS                    NI= 1 NR= 1 NTot=       1 LenBuf=    2 NRI=1 N=    1000
 NPA CHARGES                         NI= 0 NR= 1 NTot=      12 LenBuf=  256 NRI=1 N=      12
 Recovered energy= -232.008741016     dipole=     -0.000000000000     -0.000000000000      0.000000000000
 1\1\GINC-NODE70\SP\ROB3LYP\def2SVP\C6H6(1-,2)\YANFEIG\03-Feb-2020\0\\#
  b3lyp/def2svp scf=(maxcycle=512, xqc) pop=(full,mbs,hirshfeld,nbo6rea
 d)\\None\\-1,2\C,0,-1.2127,0.65594,-0.12732\C,0,-1.18234,-0.72019,0.02
 249\C,0,0.03036,-1.37613,0.14981\C,0,1.2127,-0.65594,0.12732\C,0,1.182
 34,0.72019,-0.02249\C,0,-0.03036,1.37613,-0.14981\H,0,-2.15902,1.16779
 ,-0.2267\H,0,-2.10496,-1.28219,0.04\H,0,0.05405,-2.44998,0.2667\H,0,2.
 15902,-1.16779,0.2267\H,0,2.10496,1.28219,-0.04\H,0,-0.05405,2.44998,-
 0.2667\\Version=EM64L-G16RevB.01\State=2-AU\HF=-232.008741\RMSD=2.483e
 -10\Dipole=0.,0.,0.\Quadrupole=0.4461695,-1.3080936,0.8619241,0.036690
 9,-0.0245087,0.2386379\PG=CI [X(C6H6)]\\@


 TIME IS IN FACT THE HERO OF THE PLOT. THE TIME
 WITH WHICH WE HAVE TO DEAL IS OF THE ORDER OF TWO
 BILLION YEARS...GIVEN SO MUCH TIME, THE "IMPOSSIBLE"
 BECOMES POSSIBLE, THE POSSIBLE PROBABLE, THE PROBABLE
 VIRTUALLY CERTAIN.  ONE HAS ONLY TO WAIT, TIME
 ITSELF PERFORMS THE MIRACLES.
 "ORIGIN OF LIFE" LECTURES, GEORGE WALD, 1954
 Job cpu time:       0 days  0 hours  5 minutes  6.1 seconds.
 Elapsed time:       0 days  0 hours  0 minutes 17.3 seconds.
 File lengths (MBytes):  RWF=     15 Int=      0 D2E=      0 Chk=      2 Scr=      1
 Normal termination of Gaussian 16 at Mon Feb  3 15:18:34 2020.
