 Entering Gaussian System, Link 0=/opt/g16/g16
 Initial command:
 /opt/g16/l1.exe "/scratch/yanfeig/Gau-33901.inp" -scrdir="/scratch/yanfeig/"
 Entering Link 1 = /opt/g16/l1.exe PID=     33903.
  
 Copyright (c) 1988-2017, Gaussian, Inc.  All Rights Reserved.
  
 This is part of the Gaussian(R) 16 program.  It is based on
 the Gaussian(R) 09 system (copyright 2009, Gaussian, Inc.),
 the Gaussian(R) 03 system (copyright 2003, Gaussian, Inc.),
 the Gaussian(R) 98 system (copyright 1998, Gaussian, Inc.),
 the Gaussian(R) 94 system (copyright 1995, Gaussian, Inc.),
 the Gaussian 92(TM) system (copyright 1992, Gaussian, Inc.),
 the Gaussian 90(TM) system (copyright 1990, Gaussian, Inc.),
 the Gaussian 88(TM) system (copyright 1988, Gaussian, Inc.),
 the Gaussian 86(TM) system (copyright 1986, Carnegie Mellon
 University), and the Gaussian 82(TM) system (copyright 1983,
 Carnegie Mellon University). Gaussian is a federally registered
 trademark of Gaussian, Inc.
  
 This software contains proprietary and confidential information,
 including trade secrets, belonging to Gaussian, Inc.
  
 This software is provided under written license and may be
 used, copied, transmitted, or stored only in accord with that
 written license.
  
 The following legend is applicable only to US Government
 contracts under FAR:
  
                    RESTRICTED RIGHTS LEGEND
  
 Use, reproduction and disclosure by the US Government is
 subject to restrictions as set forth in subparagraphs (a)
 and (c) of the Commercial Computer Software - Restricted
 Rights clause in FAR 52.227-19.
  
 Gaussian, Inc.
 340 Quinnipiac St., Bldg. 40, Wallingford CT 06492
  
  
 ---------------------------------------------------------------
 Warning -- This program may not be used in any manner that
 competes with the business of Gaussian, Inc. or will provide
 assistance to any competitor of Gaussian, Inc.  The licensee
 of this program is prohibited from giving any competitor of
 Gaussian, Inc. access to this program.  By using this program,
 the user acknowledges that Gaussian, Inc. is engaged in the
 business of creating and licensing software in the field of
 computational chemistry and represents and warrants to the
 licensee that it is not a competitor of Gaussian, Inc. and that
 it will not use this program in any manner prohibited above.
 ---------------------------------------------------------------
  

 Cite this work as:
 Gaussian 16, Revision B.01,
 M. J. Frisch, G. W. Trucks, H. B. Schlegel, G. E. Scuseria, 
 M. A. Robb, J. R. Cheeseman, G. Scalmani, V. Barone, 
 G. A. Petersson, H. Nakatsuji, X. Li, M. Caricato, A. V. Marenich, 
 J. Bloino, B. G. Janesko, R. Gomperts, B. Mennucci, H. P. Hratchian, 
 J. V. Ortiz, A. F. Izmaylov, J. L. Sonnenberg, D. Williams-Young, 
 F. Ding, F. Lipparini, F. Egidi, J. Goings, B. Peng, A. Petrone, 
 T. Henderson, D. Ranasinghe, V. G. Zakrzewski, J. Gao, N. Rega, 
 G. Zheng, W. Liang, M. Hada, M. Ehara, K. Toyota, R. Fukuda, 
 J. Hasegawa, M. Ishida, T. Nakajima, Y. Honda, O. Kitao, H. Nakai, 
 T. Vreven, K. Throssell, J. A. Montgomery, Jr., J. E. Peralta, 
 F. Ogliaro, M. J. Bearpark, J. J. Heyd, E. N. Brothers, K. N. Kudin, 
 V. N. Staroverov, T. A. Keith, R. Kobayashi, J. Normand, 
 K. Raghavachari, A. P. Rendell, J. C. Burant, S. S. Iyengar, 
 J. Tomasi, M. Cossi, J. M. Millam, M. Klene, C. Adamo, R. Cammi, 
 J. W. Ochterski, R. L. Martin, K. Morokuma, O. Farkas, 
 J. B. Foresman, and D. J. Fox, Gaussian, Inc., Wallingford CT, 2016.
 
 ******************************************
 Gaussian 16:  EM64L-G16RevB.01 20-Dec-2017
                 3-Feb-2020 
 ******************************************
 %chk=CHEMBL231079_opt.chk
 %nprocshared=20
 Will use up to   20 processors via shared memory.
 ----------------------------------------------------------------------
 # b3lyp/def2svp nmr=GIAO scf=(maxcycle=512, xqc) pop=(full,mbs,hirshfe
 ld,nbo6read)
 ----------------------------------------------------------------------
 1/38=1,163=2,172=1/1;
 2/12=2,17=6,18=5,40=1/2;
 3/5=43,7=101,11=2,25=1,30=1,74=-5/1,2,3,8;
 4//1;
 5/5=2,7=512,8=3,13=1,38=5/2,8;
 8/6=1,10=90,11=11/1;
 10/13=100,45=16/2;
 6/7=3,27=100,28=1,40=2,64=1,79=1,113=1,114=1,124=2103,125=11000/1,12;
 99/9=1/99;
 ----
 None
 ----
 Symbolic Z-matrix:
 Charge =  0 Multiplicity = 1
 C                     0.        0.        0. 
 H                    -0.64458  -0.76718  -0.40871 
 H                    -0.34609   0.97258  -0.32466 
 H                    -0.0221   -0.04843   1.08086 
 H                     1.01277  -0.15697  -0.34748 
 
                          Input orientation:                          
 ---------------------------------------------------------------------
 Center     Atomic      Atomic             Coordinates (Angstroms)
 Number     Number       Type             X           Y           Z
 ---------------------------------------------------------------------
      1          6           0        0.000000    0.000000    0.000000
      2          1           0       -0.644580   -0.767180   -0.408710
      3          1           0       -0.346090    0.972580   -0.324660
      4          1           0       -0.022100   -0.048430    1.080860
      5          1           0        1.012770   -0.156970   -0.347480
 ---------------------------------------------------------------------
                    Distance matrix (angstroms):
                    1          2          3          4          5
     1  C    0.000000
     2  H    1.082170   0.000000
     3  H    1.082171   1.767180   0.000000
     4  H    1.082170   1.767173   1.767178   0.000000
     5  H    1.082167   1.767177   1.767174   1.767171   0.000000
 Stoichiometry    CH4
 Framework group  C1[X(CH4)]
 Deg. of freedom     9
 Full point group                 C1      NOp   1
 Largest Abelian subgroup         C1      NOp   1
 Largest concise Abelian subgroup C1      NOp   1
                         Standard orientation:                         
 ---------------------------------------------------------------------
 Center     Atomic      Atomic             Coordinates (Angstroms)
 Number     Number       Type             X           Y           Z
 ---------------------------------------------------------------------
      1          6           0        0.000000    0.000001   -0.000001
      2          1           0       -0.771611    0.696994   -0.299849
      3          1           0        0.894873    0.546096    0.268471
      4          1           0       -0.342423   -0.572591    0.852042
      5          1           0        0.219159   -0.670502   -0.820659
 ---------------------------------------------------------------------
 Rotational constants (GHZ):         160.5735988         160.5730831         160.5725081
 Standard basis: def2SVP (5D, 7F)
 There are    35 symmetry adapted cartesian basis functions of A   symmetry.
 There are    34 symmetry adapted basis functions of A   symmetry.
    34 basis functions,    53 primitive gaussians,    35 cartesian basis functions
     5 alpha electrons        5 beta electrons
       nuclear repulsion energy        13.5326059409 Hartrees.
 NAtoms=    5 NActive=    5 NUniq=    5 SFac= 1.00D+00 NAtFMM=   60 NAOKFM=F Big=F
 Integral buffers will be    131072 words long.
 Raffenetti 2 integral format.
 Two-electron integral symmetry is turned on.
 One-electron integrals computed using PRISM.
   1 Symmetry operations used in ECPInt.
 ECPInt:  NShTT=     171 NPrTT=     553 LenC2=     172 LenP2D=     539.
 LDataN:  DoStor=T MaxTD1= 4 Len=   56
 NBasis=    34 RedAO= T EigKep=  1.36D-02  NBF=    34
 NBsUse=    34 1.00D-06 EigRej= -1.00D+00 NBFU=    34
 ExpMin= 1.22D-01 ExpMax= 1.24D+03 ExpMxC= 1.86D+02 IAcc=3 IRadAn=         5 AccDes= 0.00D+00
 Harris functional with IExCor=  402 and IRadAn=       5 diagonalized for initial guess.
 HarFok:  IExCor=  402 AccDes= 0.00D+00 IRadAn=         5 IDoV= 1 UseB2=F ITyADJ=14
 ICtDFT=  3500011 ScaDFX=  1.000000  1.000000  1.000000  1.000000
 FoFCou: FMM=F IPFlag=           0 FMFlag=      100000 FMFlg1=           0
         NFxFlg=           0 DoJE=T BraDBF=F KetDBF=T FulRan=T
         wScrn=  0.000000 ICntrl=       500 IOpCl=  0 I1Cent=   200000004 NGrid=           0
         NMat0=    1 NMatS0=      1 NMatT0=    0 NMatD0=    1 NMtDS0=    0 NMtDT0=    0
 Petite list used in FoFCou.
 Keep R1 ints in memory in canonical form, NReq=17457953.
 Requested convergence on RMS density matrix=1.00D-08 within 128 cycles.
 Requested convergence on MAX density matrix=1.00D-06.
 Requested convergence on             energy=1.00D-06.
 No special actions if energy rises.
 Integral accuracy reduced to 1.0D-05 until final iterations.
 Initial convergence to 1.0D-05 achieved.  Increase integral accuracy.
 SCF Done:  E(RB3LYP) =  -40.4870354157     A.U. after    8 cycles
            NFock=  8  Conv=0.13D-08     -V/T= 2.0142
 QCSCF skips out because SCF is already converged.
 DoSCS=F DFT=T ScalE2(SS,OS)=  1.000000  1.000000
 Range of M.O.s used for correlation:     1    34
 NBasis=    34 NAE=     5 NBE=     5 NFC=     0 NFV=     0
 NROrb=     34 NOA=     5 NOB=     5 NVA=    29 NVB=    29
          Differentiating once with respect to magnetic field using GIAOs.
          Electric field/nuclear overlap derivatives assumed to be zero.
 Keep R3 ints in memory in canonical form, NReq=19431154.
   1 Symmetry operations used in ECPInt.
 ECPInt:  NShTT=     171 NPrTT=     553 LenC2=     172 LenP2D=     553.
 LDataN:  DoStor=T MaxTD1= 5 Len=  102
 FoFJK:  IHMeth= 1 ICntrl=    6127 DoSepK=F KAlg= 0 I1Cent=           0 FoldK=F
 IRaf=         1 NMat=       1 IRICut=       1 DoRegI=T DoRafI=F ISym2E= 0 IDoP0=0 IntGTp=1.
          There are     3 degrees of freedom in the 1st order CPHF.  IDoFFX=0 NUNeed=     3.
      3 vectors produced by pass  0 Test12= 4.83D-15 3.33D-08 XBig12= 1.12D-01 1.67D-01.
 AX will form     3 AO Fock derivatives at one time.
      3 vectors produced by pass  1 Test12= 4.83D-15 3.33D-08 XBig12= 6.56D-05 4.19D-03.
      3 vectors produced by pass  2 Test12= 4.83D-15 3.33D-08 XBig12= 6.00D-09 4.45D-05.
      3 vectors produced by pass  3 Test12= 4.83D-15 3.33D-08 XBig12= 8.32D-13 3.38D-07.
 InvSVY:  IOpt=1 It=  1 EMax= 1.49D-18
 Solved reduced A of dimension    12 with     3 vectors.
 Calculating GIAO nuclear magnetic shielding tensors.
 SCF GIAO Magnetic shielding tensor (ppm):
      1  C    Isotropic =   197.3052   Anisotropy =     0.0033
   XX=   197.3053   YX=     0.0009   ZX=     0.0006
   XY=    -0.0000   YY=   197.3050   ZY=     0.0021
   XZ=     0.0003   YZ=     0.0020   ZZ=   197.3055
   Eigenvalues:   197.3032   197.3051   197.3074
      2  H    Isotropic =    31.6868   Anisotropy =     9.1538
   XX=    33.2893   YX=    -4.2037   ZX=     1.8085
   XY=    -4.2037   YY=    32.4328   ZY=    -1.6336
   XZ=     1.8084   YZ=    -1.6336   ZZ=    29.3382
   Eigenvalues:    28.6354    28.6356    37.7893
      3  H    Isotropic =    31.6867   Anisotropy =     9.1540
   XX=    34.8950   YX=     3.8198   ZX=     1.8778
   XY=     3.8199   YY=    30.9663   ZY=     1.1460
   XZ=     1.8780   YZ=     1.1461   ZZ=    29.1988
   Eigenvalues:    28.6353    28.6354    37.7894
      4  H    Isotropic =    31.6867   Anisotropy =     9.1538
   XX=    29.5520   YX=     1.5326   ZX=    -2.2805
   XY=     1.5324   YY=    31.1981   ZY=    -3.8134
   XZ=    -2.2805   YZ=    -3.8135   ZZ=    34.3100
   Eigenvalues:    28.6354    28.6355    37.7892
      5  H    Isotropic =    31.6868   Anisotropy =     9.1541
   XX=    29.0108   YX=    -1.1486   ZX=    -1.4058
   XY=    -1.1487   YY=    32.1497   ZY=     4.3012
   XZ=    -1.4059   YZ=     4.3012   ZZ=    33.8999
   Eigenvalues:    28.6354    28.6355    37.7896
 End of Minotr F.D. properties file   721 does not exist.
 End of Minotr F.D. properties file   722 does not exist.
 End of Minotr F.D. properties file   788 does not exist.

 **********************************************************************

            Population analysis using the SCF Density.

 **********************************************************************

 Orbital symmetries:
       Occupied  (A) (A) (A) (A) (A)
       Virtual   (A) (A) (A) (A) (A) (A) (A) (A) (A) (A) (A) (A)
                 (A) (A) (A) (A) (A) (A) (A) (A) (A) (A) (A) (A)
                 (A) (A) (A) (A) (A)
 The electronic state is 1-A.
 Alpha  occ. eigenvalues --  -10.16942  -0.68896  -0.39300  -0.39300  -0.39299
 Alpha virt. eigenvalues --    0.07351   0.14628   0.14628   0.14628   0.41619
 Alpha virt. eigenvalues --    0.41619   0.41619   0.66136   0.68569   0.68569
 Alpha virt. eigenvalues --    0.68569   0.78426   1.09306   1.09306   1.54149
 Alpha virt. eigenvalues --    1.54149   1.54149   1.77154   1.77154   1.77154
 Alpha virt. eigenvalues --    2.14705   2.14706   2.14706   2.54429   2.54429
 Alpha virt. eigenvalues --    2.63004   2.92418   2.92418   2.92419
     Molecular Orbital Coefficients:
                           1         2         3         4         5
                           O         O         O         O         O
     Eigenvalues --   -10.16942  -0.68896  -0.39300  -0.39300  -0.39299
   1 1   C  1S          0.98780  -0.25063   0.00000  -0.00000   0.00000
   2        2S          0.05222   0.48067  -0.00000   0.00000  -0.00000
   3        3S         -0.04133   0.09766  -0.00000   0.00000  -0.00000
   4        4PX        -0.00000  -0.00000   0.32388   0.30166   0.03480
   5        4PY        -0.00000  -0.00000  -0.25778   0.30003  -0.20160
   6        4PZ        -0.00000  -0.00000  -0.16050   0.12686   0.39403
   7        5PX         0.00000   0.00000   0.13087   0.12189   0.01406
   8        5PY         0.00000   0.00000  -0.10416   0.12123  -0.08146
   9        5PZ        -0.00000  -0.00000  -0.06485   0.05126   0.15922
  10        6D 0       -0.00000  -0.00000   0.00625  -0.01034   0.00706
  11        6D+1       -0.00000  -0.00000  -0.00475   0.00892  -0.00730
  12        6D-1        0.00000   0.00000   0.01648   0.00147  -0.01175
  13        6D+2        0.00000  -0.00000  -0.00278   0.00845  -0.00089
  14        6D-2       -0.00000  -0.00000   0.00856   0.01242   0.01313
  15 2   H  1S         -0.00353   0.18202  -0.30816  -0.04983  -0.23065
  16        2S          0.00792   0.04127  -0.13524  -0.02187  -0.10123
  17        3PX        -0.00189   0.01612  -0.00440   0.00684  -0.00958
  18        3PY         0.00171  -0.01456   0.00503   0.01117   0.00350
  19        3PZ        -0.00074   0.00626  -0.01039   0.00295   0.00781
  20 3   H  1S         -0.00353   0.18202   0.08561   0.37795   0.02168
  21        2S          0.00792   0.04127   0.03757   0.16587   0.00952
  22        3PX         0.00220  -0.01869   0.00524  -0.01108  -0.00011
  23        3PY         0.00134  -0.01141  -0.01061  -0.00325  -0.00682
  24        3PZ         0.00066  -0.00561  -0.00624  -0.00222   0.01159
  25 4   H  1S         -0.00353   0.18203  -0.08083  -0.13491   0.35484
  26        2S          0.00792   0.04127  -0.03547  -0.05921   0.15573
  27        3PX        -0.00084   0.00715   0.00816   0.00638   0.00832
  28        3PY        -0.00141   0.01196  -0.01058   0.00447   0.00604
  29        3PZ         0.00209  -0.01780  -0.00075   0.01072  -0.00613
  30 5   H  1S         -0.00353   0.18203   0.30338  -0.19321  -0.14587
  31        2S          0.00792   0.04127   0.13314  -0.08479  -0.06402
  32        3PX         0.00054  -0.00458   0.00584   0.01167   0.00297
  33        3PY        -0.00165   0.01401   0.00435   0.00135  -0.01196
  34        3PZ        -0.00202   0.01714   0.01002  -0.00563   0.00479
                           6         7         8         9        10
                           V         V         V         V         V
     Eigenvalues --     0.07351   0.14628   0.14628   0.14628   0.41619
   1 1   C  1S         -0.14773  -0.00000  -0.00000   0.00000  -0.00000
   2        2S          0.21517  -0.00000   0.00000  -0.00000   0.00000
   3        3S          2.97696   0.00001  -0.00000  -0.00002  -0.00002
   4        4PX        -0.00000  -0.33687   0.06633  -0.13867  -0.02846
   5        4PY         0.00000  -0.03729   0.28880   0.22872   0.03709
   6        4PZ         0.00000  -0.14913  -0.22205   0.25606  -0.29986
   7        5PX        -0.00000  -1.15067   0.22657  -0.47368   0.11669
   8        5PY        -0.00000  -0.12738   0.98648   0.78127  -0.15205
   9        5PZ         0.00000  -0.50939  -0.75846   0.87464   1.22947
  10        6D 0        0.00000  -0.00159   0.00691   0.00417  -0.01062
  11        6D+1       -0.00000   0.00128  -0.00654  -0.00305   0.01446
  12        6D-1        0.00000   0.00250  -0.00542   0.01033   0.05933
  13        6D+2       -0.00000   0.00303  -0.00300  -0.00307  -0.00832
  14        6D-2       -0.00000   0.01112   0.00378  -0.00054  -0.05724
  15 2   H  1S         -0.01912  -0.08020  -0.06236  -0.05458   0.36520
  16        2S         -1.08652  -1.44679  -1.12508  -0.98463  -0.02863
  17        3PX         0.00469  -0.00121   0.00646   0.00122  -0.00822
  18        3PY        -0.00424  -0.00660   0.00202   0.00123   0.00591
  19        3PZ         0.00182  -0.00088  -0.00307   0.00746   0.03509
  20 3   H  1S         -0.01912   0.10414  -0.04532  -0.02002  -0.22730
  21        2S         -1.08652   1.87876  -0.81752  -0.36112   0.01782
  22        3PX        -0.00544   0.00202  -0.00269  -0.00497  -0.00488
  23        3PY        -0.00332   0.00502   0.00395   0.00403  -0.01020
  24        3PZ        -0.00163  -0.00048  -0.00626   0.00521   0.03716
  25 4   H  1S         -0.01912  -0.00277   0.10858  -0.03876  -0.70795
  26        2S         -1.08652  -0.05005   1.95881  -0.69933   0.05549
  27        3PX         0.00208  -0.00749  -0.00234  -0.00176   0.01409
  28        3PY         0.00348  -0.00068   0.00010   0.00744   0.01233
  29        3PZ        -0.00518  -0.00360   0.00454   0.00236   0.01409
  30 5   H  1S         -0.01912  -0.02117  -0.00090   0.11336   0.57006
  31        2S         -1.08652  -0.38193  -0.01621   2.04510  -0.04467
  32        3PX        -0.00133  -0.00807   0.00147  -0.00056   0.00909
  33        3PY         0.00408   0.00062   0.00657  -0.00268  -0.02118
  34        3PZ         0.00499  -0.00157  -0.00493  -0.00382   0.01985
                          11        12        13        14        15
                           V         V         V         V         V
     Eigenvalues --     0.41619   0.41619   0.66136   0.68569   0.68569
   1 1   C  1S          0.00000   0.00000   0.31928   0.00000  -0.00000
   2        2S         -0.00000  -0.00000  -2.00991  -0.00004   0.00001
   3        3S         -0.00000   0.00000   5.04528   0.00011  -0.00003
   4        4PX        -0.03175  -0.30047  -0.00000   0.68870  -0.52696
   5        4PY        -0.29989   0.02817  -0.00003   0.58904   0.39592
   6        4PZ        -0.03408   0.03200  -0.00003  -0.19865  -0.65292
   7        5PX         0.13016   1.23199   0.00000  -1.21655   0.93083
   8        5PY         1.22959  -0.11551   0.00005  -1.04050  -0.69937
   9        5PZ         0.13972  -0.13122   0.00005   0.35090   1.15333
  10        6D 0        0.05725   0.00300  -0.00000   0.07694   0.04100
  11        6D+1       -0.04966  -0.00463   0.00000  -0.07129  -0.04112
  12        6D-1        0.01552  -0.05818  -0.00000  -0.07637  -0.02199
  13        6D+2       -0.03462  -0.01088   0.00000  -0.05201   0.00460
  14        6D-2       -0.00205  -0.06045   0.00000  -0.05504   0.13672
  15 2   H  1S         -0.46221   0.64140   0.28175   0.03563  -0.51068
  16        2S          0.03622  -0.05026  -1.25110  -0.11641   1.66808
  17        3PX         0.01938   0.01878  -0.07360   0.03884   0.11819
  18        3PY         0.02605   0.01529   0.06648   0.05239  -0.11254
  19        3PZ         0.01042  -0.01243  -0.02860  -0.01858   0.01356
  20 3   H  1S         -0.53385  -0.64942   0.28176  -0.51434   0.25038
  21        2S          0.04184   0.05089  -1.25112   1.68001  -0.81782
  22        3PX        -0.01612   0.01511   0.08536  -0.13276   0.05078
  23        3PY         0.02735  -0.01883   0.05209  -0.06883   0.08281
  24        3PZ        -0.00158  -0.01166   0.02561  -0.06910  -0.02050
  25 4   H  1S          0.40716   0.30236   0.28175   0.43162   0.35034
  26        2S         -0.03191  -0.02369  -1.25108  -1.40986  -1.14436
  27        3PX        -0.00172   0.03543  -0.03266  -0.00886  -0.08563
  28        3PY         0.02984  -0.01110  -0.05462  -0.05545  -0.05095
  29        3PZ         0.01928   0.00672   0.08127   0.13148   0.07121
  30 5   H  1S          0.58889  -0.29435   0.28172   0.04709  -0.09005
  31        2S         -0.04614   0.02306  -1.25101  -0.15384   0.29413
  32        3PX         0.00970   0.03709   0.02090   0.05383  -0.04589
  33        3PY         0.02296   0.00466  -0.06395   0.03002   0.05254
  34        3PZ        -0.01605   0.00604  -0.07827  -0.02967  -0.01786
                          16        17        18        19        20
                           V         V         V         V         V
     Eigenvalues --     0.68569   0.78426   1.09306   1.09306   1.54149
   1 1   C  1S         -0.00001   0.05224   0.00000  -0.00000   0.00000
   2        2S          0.00008  -1.16211  -0.00001   0.00001  -0.00000
   3        3S         -0.00023   4.70546   0.00002  -0.00003   0.00000
   4        4PX         0.32977  -0.00000  -0.00000  -0.00000  -0.00000
   5        4PY        -0.59751  -0.00001  -0.00000  -0.00000   0.00000
   6        4PZ        -0.62847  -0.00000  -0.00000   0.00000  -0.00000
   7        5PX        -0.58251  -0.00000   0.00000  -0.00000   0.00001
   8        5PY         1.05546  -0.00000   0.00000   0.00000   0.00000
   9        5PZ         1.11015   0.00001  -0.00000  -0.00000   0.00001
  10        6D 0       -0.05544  -0.00000   0.00143   0.27331  -0.00000
  11        6D+1        0.04118   0.00000  -0.20224   0.21828   0.00000
  12        6D-1       -0.12697  -0.00000   0.02811  -0.00618  -0.00000
  13        6D+2        0.04032   0.00000   0.30908   0.13736   0.00000
  14        6D-2        0.00723   0.00000  -0.06713  -0.02193   0.00000
  15 2   H  1S          0.28051  -0.73199  -0.00000   0.00000   0.00000
  16        2S         -0.91621  -0.73215  -0.00000   0.00000   0.00000
  17        3PX        -0.06200   0.04469  -0.24507  -0.07108  -0.34552
  18        3PY         0.03437  -0.04037  -0.18887  -0.20453  -0.47793
  19        3PZ        -0.07874   0.01737   0.19162  -0.29251  -0.22180
  20 3   H  1S          0.11624  -0.73199  -0.00000   0.00000  -0.00000
  21        2S         -0.37963  -0.73216  -0.00000   0.00000  -0.00000
  22        3PX         0.06506  -0.05183   0.20228   0.03101  -0.28264
  23        3PY        -0.01799  -0.03163  -0.24263  -0.19963   0.53112
  24        3PZ        -0.03302  -0.01555  -0.18073   0.30272  -0.13826
  25 4   H  1S          0.17807  -0.73200  -0.00000   0.00000  -0.00000
  26        2S         -0.58160  -0.73215  -0.00000   0.00001  -0.00000
  27        3PX        -0.00036   0.01984  -0.26196   0.22487   0.26950
  28        3PY        -0.08358   0.03316   0.24549   0.18736   0.07556
  29        3PZ         0.01477  -0.04935   0.05970   0.21628   0.15908
  30 5   H  1S         -0.57483  -0.73200  -0.00000   0.00000   0.00000
  31        2S          1.87765  -0.73215  -0.00000   0.00001   0.00000
  32        3PX        -0.02614  -0.01270   0.30474  -0.18480   0.35866
  33        3PY         0.10967   0.03884   0.18601   0.21680  -0.12875
  34        3PZ         0.14166   0.04754  -0.07059  -0.22649   0.20097
                          21        22        23        24        25
                           V         V         V         V         V
     Eigenvalues --     1.54149   1.54149   1.77154   1.77154   1.77154
   1 1   C  1S          0.00000  -0.00000   0.00000   0.00000   0.00000
   2        2S         -0.00000   0.00000   0.00000   0.00000  -0.00000
   3        3S          0.00000  -0.00000  -0.00001  -0.00002  -0.00000
   4        4PX        -0.00000   0.00000  -0.17929  -0.00369   0.05825
   5        4PY        -0.00000  -0.00000  -0.01178  -0.18201  -0.04778
   6        4PZ         0.00000  -0.00000  -0.05716   0.04907  -0.17284
   7        5PX        -0.00000  -0.00001   0.88206   0.01815  -0.28657
   8        5PY         0.00001   0.00000   0.05794   0.89546   0.23507
   9        5PZ        -0.00000   0.00001   0.28123  -0.24141   0.85035
  10        6D 0       -0.00000  -0.00000  -0.03995  -0.23090  -0.03293
  11        6D+1        0.00000   0.00000   0.03398   0.20790   0.00706
  12        6D-1       -0.00000  -0.00000   0.10931   0.02140  -0.32450
  13        6D+2        0.00000   0.00000   0.08021   0.11572   0.05483
  14        6D-2       -0.00000  -0.00000   0.31187  -0.08950   0.09465
  15 2   H  1S         -0.00000  -0.00000   0.33585  -0.31636  -0.06025
  16        2S         -0.00000  -0.00000   0.12551  -0.11822  -0.02252
  17        3PX         0.18194   0.21042  -0.45243   0.00097   0.14543
  18        3PY         0.01669   0.07432  -0.01937  -0.45756  -0.11945
  19        3PZ        -0.42938  -0.36872  -0.14500   0.12482  -0.42513
  20 3   H  1S         -0.00000   0.00000  -0.41554  -0.20415  -0.04646
  21        2S         -0.00000   0.00000  -0.15528  -0.07629  -0.01736
  22        3PX        -0.15131   0.15421  -0.45707  -0.01662   0.14181
  23        3PY        -0.01697  -0.12628  -0.03837  -0.45306  -0.11878
  24        3PZ         0.53887  -0.25714  -0.14544   0.11864  -0.42639
  25 4   H  1S          0.00000  -0.00000   0.04431   0.33590  -0.31894
  26        2S          0.00000  -0.00000   0.01656   0.12552  -0.11918
  27        3PX        -0.50306  -0.18569  -0.44238  -0.01382   0.14802
  28        3PY        -0.02233   0.53102  -0.03006  -0.45639  -0.11021
  29        3PZ        -0.21718   0.28223  -0.13929   0.13270  -0.43708
  30 5   H  1S          0.00000   0.00000   0.03538   0.18463   0.42564
  31        2S          0.00000   0.00000   0.01322   0.06900   0.15907
  32        3PX         0.47242  -0.17893  -0.44144  -0.00743   0.14736
  33        3PY         0.02260  -0.47907  -0.03000  -0.45356  -0.12948
  34        3PZ         0.10769   0.34363  -0.14204   0.11467  -0.44027
                          26        27        28        29        30
                           V         V         V         V         V
     Eigenvalues --     2.14705   2.14706   2.14706   2.54429   2.54429
   1 1   C  1S         -0.00000  -0.00000  -0.00000  -0.00001   0.00000
   2        2S          0.00001   0.00000   0.00000   0.00004  -0.00003
   3        3S         -0.00001  -0.00000   0.00000   0.00001  -0.00001
   4        4PX         0.24148  -0.12992   0.51730  -0.00000   0.00001
   5        4PY         0.22938   0.53795   0.02804  -0.00000  -0.00000
   6        4PZ        -0.48152   0.19110   0.27277  -0.00001  -0.00000
   7        5PX         0.32349  -0.17405   0.69301  -0.00000   0.00000
   8        5PY         0.30729   0.72066   0.03756   0.00000   0.00000
   9        5PZ        -0.64506   0.25601   0.36542  -0.00000  -0.00000
  10        6D 0        0.15077   0.25450   0.03970   0.82505  -0.00087
  11        6D+1       -0.15762  -0.21217  -0.02852   0.65507  -0.61464
  12        6D-1       -0.35935   0.23181  -0.06611  -0.01811   0.08496
  13        6D+2       -0.05046  -0.15243  -0.10266   0.42051   0.93040
  14        6D-2        0.09531   0.03985  -0.41357  -0.06748  -0.20223
  15 2   H  1S         -0.04014  -0.14224   0.15705  -0.00001   0.00001
  16        2S         -0.12781  -0.45288   0.50003  -0.00001   0.00001
  17        3PX        -0.39985  -0.41114   0.07246   0.09189   0.30956
  18        3PY        -0.09546  -0.05779  -0.57088   0.26033   0.23736
  19        3PZ         0.43172  -0.40629  -0.04505   0.36861  -0.24480
  20 3   H  1S         -0.07218  -0.07788  -0.18770  -0.00001   0.00001
  21        2S         -0.22983  -0.24797  -0.59763  -0.00000   0.00000
  22        3PX         0.07360   0.47784   0.30425  -0.04084  -0.25573
  23        3PY        -0.03878  -0.33823   0.47918   0.25455   0.30543
  24        3PZ         0.58735  -0.09142  -0.02870  -0.38161   0.23110
  25 4   H  1S          0.21249   0.03428  -0.01335  -0.00001   0.00001
  26        2S          0.67657   0.10914  -0.04251  -0.00000   0.00001
  27        3PX         0.11406   0.19072  -0.55051  -0.28247   0.33327
  28        3PY         0.36870  -0.45169  -0.06648  -0.23905  -0.30915
  29        3PZ        -0.40559  -0.33969  -0.22198  -0.27415  -0.07383
  30 5   H  1S         -0.10016   0.18584   0.04400  -0.00001   0.00001
  31        2S         -0.31893   0.59171   0.14011  -0.00001   0.00000
  32        3PX        -0.13765  -0.06919  -0.57563   0.23142  -0.38710
  33        3PY        -0.56678   0.06837   0.11756  -0.27584  -0.23365
  34        3PZ         0.08411   0.56054  -0.09944   0.28715   0.08753
                          31        32        33        34
                           V         V         V         V
     Eigenvalues --     2.63004   2.92418   2.92418   2.92419
   1 1   C  1S         -0.31359  -0.00000   0.00000  -0.00000
   2        2S          1.99535   0.00000  -0.00001   0.00004
   3        3S          1.05690   0.00000  -0.00000   0.00001
   4        4PX        -0.00000   1.12929  -0.14088   0.05948
   5        4PY        -0.00001   0.15148   1.09117  -0.29171
   6        4PZ         0.00001   0.02089  -0.29697  -1.10003
   7        5PX        -0.00000   0.58664  -0.07318   0.03090
   8        5PY        -0.00000   0.07869   0.56683  -0.15153
   9        5PZ         0.00001   0.01085  -0.15427  -0.57143
  10        6D 0       -0.00002  -0.25261  -0.90299   0.16482
  11        6D+1       -0.00002   0.24300   0.81033  -0.05852
  12        6D-1       -0.00001   0.76655  -0.02966   1.14749
  13        6D+2        0.00001   0.31872   0.42591  -0.29427
  14        6D-2        0.00000   1.05089  -0.51197  -0.69462
  15 2   H  1S         -0.60261   0.75427  -0.93622  -0.07879
  16        2S         -0.28254   0.28045  -0.34810  -0.02929
  17        3PX        -0.57383   0.59708  -0.66556  -0.05174
  18        3PY         0.51834  -0.46914   0.65896   0.03247
  19        3PZ        -0.22300   0.20698  -0.27315  -0.08740
  20 3   H  1S         -0.60262  -1.07359  -0.38111   0.39214
  21        2S         -0.28254  -0.39917  -0.14170   0.14580
  22        3PX         0.66550   0.94159   0.30178  -0.31564
  23        3PY         0.40612   0.54238   0.25470  -0.21228
  24        3PZ         0.19967   0.26344   0.07528  -0.16168
  25 4   H  1S         -0.60263   0.44514   0.81048   0.77240
  26        2S         -0.28255   0.16551   0.30135   0.28719
  27        3PX        -0.25465   0.20632   0.24401   0.24415
  28        3PY        -0.42583   0.24093   0.48752   0.38483
  29        3PZ         0.63366  -0.34375  -0.64596  -0.66456
  30 5   H  1S         -0.60261  -0.12582   0.50685  -1.08580
  31        2S         -0.28254  -0.04678   0.18845  -0.40371
  32        3PX         0.16297   0.09275  -0.10949   0.22002
  33        3PY        -0.49864  -0.06766   0.37452  -0.67973
  34        3PZ        -0.61031  -0.09267   0.36057  -0.87647
     Density Matrix:
                           1         2         3         4         5
   1 1   C  1S          2.07713
   2        2S         -0.13778   0.46753
   3        3S         -0.13060   0.08957   0.02249
   4        4PX        -0.00000   0.00000   0.00000   0.39422
   5        4PY        -0.00000   0.00000   0.00000  -0.00000   0.39422
   6        4PZ         0.00000  -0.00000   0.00000  -0.00000   0.00000
   7        5PX        -0.00000   0.00000   0.00000   0.15930   0.00000
   8        5PY        -0.00000   0.00000   0.00000   0.00000   0.15930
   9        5PZ         0.00000  -0.00000   0.00000   0.00000  -0.00000
  10        6D 0       -0.00000  -0.00000  -0.00000  -0.00170  -0.01228
  11        6D+1       -0.00000   0.00000   0.00000   0.00180   0.01075
  12        6D-1        0.00000   0.00000  -0.00000   0.01075  -0.00288
  13        6D+2        0.00000   0.00000   0.00000   0.00324   0.00686
  14        6D-2       -0.00000  -0.00000   0.00000   0.01395  -0.00226
  15 2   H  1S         -0.09822   0.17462   0.03584  -0.24573   0.22197
  16        2S         -0.00505   0.04050   0.00741  -0.10784   0.09742
  17        3PX        -0.01182   0.01530   0.00330   0.00061   0.01024
  18        3PY         0.01068  -0.01382  -0.00299   0.01024   0.00270
  19        3PZ        -0.00459   0.00594   0.00128  -0.00440   0.00398
  20 3   H  1S         -0.09822   0.17462   0.03585   0.28499   0.17391
  21        2S         -0.00505   0.04050   0.00741   0.12507   0.07633
  22        3PX         0.01371  -0.01774  -0.00383  -0.00330  -0.00930
  23        3PY         0.00837  -0.01083  -0.00234  -0.00930   0.00627
  24        3PZ         0.00411  -0.00532  -0.00115  -0.00457  -0.00279
  25 4   H  1S         -0.09822   0.17462   0.03584  -0.10905  -0.18235
  26        2S         -0.00505   0.04050   0.00741  -0.04786  -0.08003
  27        3PX        -0.00525   0.00679   0.00147   0.00971  -0.00373
  28        3PY        -0.00877   0.01135   0.00245  -0.00373   0.00571
  29        3PZ         0.01306  -0.01689  -0.00365   0.00555   0.00929
  30 5   H  1S         -0.09822   0.17462   0.03584   0.06980  -0.21353
  31        2S         -0.00505   0.04050   0.00741   0.03063  -0.09371
  32        3PX         0.00336  -0.00434  -0.00094   0.01103   0.00280
  33        3PY        -0.01027   0.01329   0.00287   0.00280   0.00339
  34        3PZ        -0.01257   0.01627   0.00351   0.00342  -0.01048
                           6         7         8         9        10
   6        4PZ         0.39422
   7        5PX         0.00000   0.06437
   8        5PY        -0.00000   0.00000   0.06437
   9        5PZ         0.15930   0.00000  -0.00000   0.06437
  10        6D 0        0.00093  -0.00069  -0.00496   0.00038   0.00039
  11        6D+1       -0.00196   0.00073   0.00434  -0.00079  -0.00035
  12        6D-1       -0.01418   0.00434  -0.00116  -0.00573   0.00001
  13        6D+2        0.00234   0.00131   0.00277   0.00094  -0.00022
  14        6D-2        0.01075   0.00564  -0.00091   0.00434   0.00004
  15 2   H  1S         -0.09549  -0.09929   0.08969  -0.03859  -0.00608
  16        2S         -0.04191  -0.04358   0.03936  -0.01693  -0.00267
  17        3PX        -0.00440   0.00025   0.00414  -0.00178  -0.00033
  18        3PY         0.00398   0.00414   0.00109   0.00161  -0.00012
  19        3PZ         0.01024  -0.00178   0.00161   0.00414  -0.00008
  20 3   H  1S          0.08550   0.11516   0.07028   0.03455  -0.00644
  21        2S          0.03752   0.05054   0.03084   0.01516  -0.00283
  22        3PX        -0.00457  -0.00133  -0.00376  -0.00185   0.00029
  23        3PY        -0.00279  -0.00376   0.00253  -0.00113  -0.00016
  24        3PZ         0.01057  -0.00185  -0.00113   0.00427   0.00013
  25 4   H  1S          0.27135  -0.04406  -0.07368   0.10965   0.00679
  26        2S          0.11909  -0.01934  -0.03234   0.04812   0.00298
  27        3PX         0.00555   0.00393  -0.00151   0.00224   0.00009
  28        3PY         0.00929  -0.00151   0.00231   0.00375  -0.00014
  29        3PZ        -0.00187   0.00224   0.00375  -0.00076  -0.00032
  30 5   H  1S         -0.26136   0.02820  -0.08628  -0.10561   0.00573
  31        2S         -0.11470   0.01238  -0.03787  -0.04635   0.00251
  32        3PX         0.00342   0.00446   0.00113   0.00138  -0.00013
  33        3PY        -0.01048   0.00113   0.00137  -0.00423  -0.00014
  34        3PZ        -0.00087   0.00138  -0.00423  -0.00035   0.00031
                          11        12        13        14        15
  11        6D+1        0.00031
  12        6D-1        0.00004   0.00082
  13        6D+2        0.00019  -0.00005   0.00016
  14        6D-2       -0.00005   0.00001   0.00014   0.00080
  15 2   H  1S          0.00541  -0.00488   0.00128  -0.01257   0.36758
  16        2S          0.00237  -0.00214   0.00056  -0.00552   0.14719
  17        3PX         0.00030   0.00010   0.00016  -0.00016   0.01233
  18        3PY         0.00010   0.00012   0.00015   0.00046  -0.01114
  19        3PZ         0.00004  -0.00052   0.00009   0.00010   0.00479
  20 3   H  1S          0.00561   0.00343   0.00587   0.01142  -0.03414
  21        2S          0.00246   0.00150   0.00258   0.00501  -0.02911
  22        3PX        -0.00025   0.00014  -0.00022  -0.00019  -0.00890
  23        3PY         0.00014  -0.00020   0.00002  -0.00044   0.00584
  24        3PZ        -0.00015  -0.00048  -0.00002   0.00014  -0.00333
  25 4   H  1S         -0.00682  -0.01140  -0.00246   0.00458  -0.03414
  26        2S         -0.00299  -0.00500  -0.00108   0.00201  -0.02911
  27        3PX        -0.00009   0.00009   0.00005   0.00052  -0.00689
  28        3PY         0.00009  -0.00048   0.00012   0.00009   0.00765
  29        3PZ         0.00029   0.00015   0.00020   0.00009  -0.00427
  30 5   H  1S         -0.00420   0.01286  -0.00469  -0.00343  -0.03414
  31        2S         -0.00184   0.00564  -0.00206  -0.00151  -0.02911
  32        3PX         0.00011   0.00016   0.00016   0.00047  -0.00780
  33        3PY         0.00016   0.00043   0.00002  -0.00021   0.00781
  34        3PZ        -0.00027   0.00020  -0.00016   0.00016  -0.00157
                          16        17        18        19        20
  16        2S          0.06156
  17        3PX         0.00413   0.00084
  18        3PY        -0.00373  -0.00043   0.00075
  19        3PZ         0.00161   0.00019  -0.00017   0.00043
  20 3   H  1S         -0.02911   0.00989   0.00414   0.00308   0.36758
  21        2S         -0.01581   0.00306   0.00297   0.00085   0.14719
  22        3PX        -0.00242  -0.00081   0.00036  -0.00041  -0.01430
  23        3PY         0.00347  -0.00019   0.00011  -0.00005  -0.00873
  24        3PZ        -0.00102  -0.00038   0.00013   0.00023  -0.00429
  25 4   H  1S         -0.02911  -0.00206  -0.00665   0.00871  -0.03414
  26        2S         -0.01581  -0.00218  -0.00176   0.00332  -0.02911
  27        3PX        -0.00359   0.00009   0.00007   0.00009   0.00919
  28        3PY         0.00241   0.00043  -0.00032   0.00049   0.00620
  29        3PZ        -0.00046  -0.00031   0.00071  -0.00024   0.00121
  30 5   H  1S         -0.02911   0.00336  -0.00760  -0.00743  -0.03414
  31        2S         -0.01581   0.00020  -0.00218  -0.00376  -0.02911
  32        3PX        -0.00306  -0.00010   0.00048  -0.00006   0.00828
  33        3PY         0.00232   0.00067  -0.00042  -0.00009   0.00636
  34        3PZ        -0.00205   0.00030  -0.00050   0.00005   0.00392
                          21        22        23        24        25
  21        2S          0.06156
  22        3PX        -0.00479   0.00101
  23        3PY        -0.00292   0.00039   0.00060
  24        3PZ        -0.00144   0.00019   0.00012   0.00042
  25 4   H  1S         -0.02911  -0.00475  -0.00641   0.00779   0.36758
  26        2S         -0.01581  -0.00060  -0.00191   0.00386   0.14720
  27        3PX         0.00347  -0.00033  -0.00049  -0.00002   0.00547
  28        3PY         0.00177  -0.00066  -0.00016   0.00012   0.00915
  29        3PZ         0.00195   0.00043   0.00044   0.00002  -0.01362
  30 5   H  1S         -0.02911   0.00067  -0.00736  -0.00835  -0.03414
  31        2S         -0.01581   0.00178  -0.00232  -0.00322  -0.02911
  32        3PX         0.00400  -0.00002  -0.00013  -0.00000  -0.00366
  33        3PY         0.00168  -0.00051  -0.00026  -0.00050  -0.00444
  34        3PZ         0.00036  -0.00042  -0.00064  -0.00018   0.00955
                          26        27        28        29        30
  26        2S          0.06156
  27        3PX         0.00183   0.00046
  28        3PY         0.00307   0.00016   0.00063
  29        3PZ        -0.00456  -0.00024  -0.00039   0.00095
  30 5   H  1S         -0.02911   0.00267  -0.00554  -0.00930   0.36758
  31        2S         -0.01581   0.00060  -0.00338  -0.00267   0.14719
  32        3PX        -0.00124   0.00023  -0.00009   0.00037  -0.00350
  33        3PY        -0.00306   0.00009   0.00012  -0.00034   0.01072
  34        3PZ         0.00283   0.00042   0.00021  -0.00081   0.01312
                          31        32        33        34
  31        2S          0.06156
  32        3PX        -0.00117   0.00040
  33        3PY         0.00359  -0.00012   0.00073
  34        3PZ         0.00439  -0.00015   0.00044   0.00091
    Full Mulliken population analysis:
                           1         2         3         4         5
   1 1   C  1S          2.07713
   2        2S         -0.04486   0.46753
   3        3S         -0.01982   0.07152   0.02249
   4        4PX         0.00000   0.00000   0.00000   0.39422
   5        4PY         0.00000   0.00000   0.00000  -0.00000   0.39422
   6        4PZ         0.00000   0.00000   0.00000  -0.00000  -0.00000
   7        5PX         0.00000   0.00000   0.00000   0.08473   0.00000
   8        5PY         0.00000   0.00000   0.00000   0.00000   0.08473
   9        5PZ         0.00000   0.00000   0.00000   0.00000   0.00000
  10        6D 0       -0.00000  -0.00000  -0.00000   0.00000   0.00000
  11        6D+1       -0.00000   0.00000   0.00000   0.00000   0.00000
  12        6D-1       -0.00000  -0.00000   0.00000   0.00000   0.00000
  13        6D+2        0.00000   0.00000   0.00000   0.00000   0.00000
  14        6D-2       -0.00000  -0.00000   0.00000   0.00000   0.00000
  15 2   H  1S         -0.00509   0.06547   0.01643   0.06961   0.05680
  16        2S         -0.00044   0.02127   0.00568   0.01601   0.01307
  17        3PX        -0.00073   0.00400   0.00044  -0.00006   0.00290
  18        3PY        -0.00059   0.00326   0.00036   0.00290  -0.00013
  19        3PZ        -0.00011   0.00060   0.00007   0.00054   0.00044
  20 3   H  1S         -0.00509   0.06547   0.01643   0.09363   0.03487
  21        2S         -0.00044   0.02127   0.00568   0.02154   0.00802
  22        3PX        -0.00098   0.00537   0.00059   0.00070   0.00240
  23        3PY        -0.00036   0.00200   0.00022   0.00240   0.00033
  24        3PZ        -0.00009   0.00048   0.00005   0.00058   0.00022
  25 4   H  1S         -0.00509   0.06547   0.01643   0.01371   0.03833
  26        2S         -0.00044   0.02127   0.00568   0.00315   0.00882
  27        3PX        -0.00014   0.00079   0.00009   0.00143   0.00039
  28        3PY        -0.00040   0.00220   0.00024   0.00039   0.00021
  29        3PZ        -0.00089   0.00487   0.00054   0.00085   0.00239
  30 5   H  1S         -0.00509   0.06547   0.01643   0.00562   0.05256
  31        2S         -0.00044   0.02127   0.00568   0.00129   0.01209
  32        3PX        -0.00006   0.00032   0.00004   0.00203   0.00022
  33        3PY        -0.00055   0.00302   0.00033   0.00022  -0.00009
  34        3PZ        -0.00082   0.00452   0.00050   0.00032   0.00304
                           6         7         8         9        10
   6        4PZ         0.39422
   7        5PX         0.00000   0.06437
   8        5PY         0.00000   0.00000   0.06437
   9        5PZ         0.08473   0.00000   0.00000   0.06437
  10        6D 0        0.00000   0.00000   0.00000   0.00000   0.00039
  11        6D+1        0.00000   0.00000   0.00000   0.00000  -0.00000
  12        6D-1        0.00000   0.00000   0.00000   0.00000  -0.00000
  13        6D+2        0.00000   0.00000   0.00000   0.00000   0.00000
  14        6D-2        0.00000   0.00000   0.00000   0.00000  -0.00000
  15 2   H  1S          0.01051   0.04000   0.03263   0.00604   0.00071
  16        2S          0.00242   0.01645   0.01342   0.00248   0.00005
  17        3PX         0.00054   0.00003   0.00055   0.00010   0.00001
  18        3PY         0.00044   0.00055   0.00016   0.00008  -0.00000
  19        3PZ         0.00166   0.00010   0.00008   0.00102   0.00001
  20 3   H  1S          0.00843   0.05380   0.02003   0.00484   0.00080
  21        2S          0.00194   0.02213   0.00824   0.00199   0.00006
  22        3PX         0.00058  -0.00010   0.00045   0.00011   0.00002
  23        3PY         0.00022   0.00045   0.00050   0.00004  -0.00001
  24        3PZ         0.00181   0.00011   0.00004   0.00108   0.00002
  25 4   H  1S          0.08488   0.00788   0.02202   0.04877   0.00089
  26        2S          0.01953   0.00324   0.00906   0.02006   0.00006
  27        3PX         0.00085   0.00095   0.00007   0.00016   0.00001
  28        3PY         0.00239   0.00007   0.00044   0.00045  -0.00004
  29        3PZ         0.00032   0.00016   0.00045  -0.00007  -0.00003
  30 5   H  1S          0.07874   0.00323   0.03020   0.04524   0.00063
  31        2S          0.01811   0.00133   0.01242   0.01861   0.00004
  32        3PX         0.00032   0.00115   0.00004   0.00006   0.00001
  33        3PY         0.00304   0.00004   0.00022   0.00058  -0.00004
  34        3PZ         0.00013   0.00006   0.00058  -0.00004  -0.00004
                          11        12        13        14        15
  11        6D+1        0.00031
  12        6D-1        0.00000   0.00082
  13        6D+2        0.00000  -0.00000   0.00016
  14        6D-2        0.00000   0.00000   0.00000   0.00080
  15 2   H  1S          0.00056   0.00046   0.00003   0.00304   0.36758
  16        2S          0.00004   0.00003   0.00000   0.00021   0.10080
  17        3PX         0.00002  -0.00001  -0.00003   0.00002   0.00000
  18        3PY        -0.00001   0.00000  -0.00004   0.00004   0.00000
  19        3PZ        -0.00001  -0.00008   0.00000  -0.00001   0.00000
  20 3   H  1S          0.00061   0.00023   0.00066   0.00251  -0.00206
  21        2S          0.00004   0.00002   0.00005   0.00018  -0.00670
  22        3PX         0.00003  -0.00002  -0.00002   0.00004   0.00058
  23        3PY        -0.00002  -0.00000  -0.00000  -0.00002   0.00003
  24        3PZ        -0.00003  -0.00007   0.00000  -0.00002   0.00007
  25 4   H  1S          0.00090   0.00250   0.00012   0.00040  -0.00206
  26        2S          0.00006   0.00017   0.00001   0.00003  -0.00670
  27        3PX        -0.00002  -0.00001  -0.00001  -0.00006   0.00012
  28        3PY        -0.00001  -0.00001   0.00002  -0.00000   0.00038
  29        3PZ         0.00003   0.00003   0.00002  -0.00001   0.00019
  30 5   H  1S          0.00034   0.00319   0.00042   0.00023  -0.00206
  31        2S          0.00002   0.00022   0.00003   0.00002  -0.00670
  32        3PX        -0.00002  -0.00002   0.00002  -0.00009   0.00030
  33        3PY        -0.00002   0.00003   0.00000   0.00000   0.00042
  34        3PZ         0.00002   0.00004   0.00002  -0.00002  -0.00003
                          16        17        18        19        20
  16        2S          0.06156
  17        3PX         0.00000   0.00084
  18        3PY         0.00000  -0.00000   0.00075
  19        3PZ         0.00000   0.00000   0.00000   0.00043
  20 3   H  1S         -0.00670   0.00064  -0.00002   0.00007   0.36758
  21        2S         -0.00801   0.00039  -0.00003   0.00004   0.10080
  22        3PX         0.00031   0.00006   0.00000   0.00001   0.00000
  23        3PY         0.00004  -0.00000   0.00000  -0.00000   0.00000
  24        3PZ         0.00004   0.00001   0.00000   0.00000   0.00000
  25 4   H  1S         -0.00670  -0.00003   0.00033   0.00039  -0.00206
  26        2S         -0.00801  -0.00007   0.00017   0.00029  -0.00670
  27        3PX         0.00012   0.00000   0.00000  -0.00000   0.00044
  28        3PY         0.00023   0.00001   0.00001   0.00002   0.00027
  29        3PZ         0.00004   0.00001   0.00003   0.00001  -0.00003
  30 5   H  1S         -0.00670   0.00013   0.00040   0.00015  -0.00206
  31        2S         -0.00801   0.00001   0.00023   0.00015  -0.00670
  32        3PX         0.00023   0.00000   0.00002  -0.00000   0.00022
  33        3PY         0.00024   0.00003   0.00002   0.00000   0.00030
  34        3PZ        -0.00008   0.00001   0.00001   0.00000   0.00017
                          21        22        23        24        25
  21        2S          0.06156
  22        3PX         0.00000   0.00101
  23        3PY         0.00000   0.00000   0.00060
  24        3PZ         0.00000   0.00000  -0.00000   0.00042
  25 4   H  1S         -0.00670   0.00023   0.00028   0.00018   0.36758
  26        2S         -0.00801   0.00006   0.00016   0.00017   0.10080
  27        3PX         0.00033   0.00001   0.00002  -0.00000   0.00000
  28        3PY         0.00015   0.00003   0.00000   0.00000   0.00000
  29        3PZ        -0.00009   0.00001   0.00001   0.00000   0.00000
  30 5   H  1S         -0.00670  -0.00002   0.00035   0.00035  -0.00206
  31        2S         -0.00801  -0.00009   0.00022   0.00027  -0.00670
  32        3PX         0.00021   0.00000   0.00000   0.00000   0.00008
  33        3PY         0.00016   0.00001   0.00001   0.00002  -0.00002
  34        3PZ         0.00003   0.00001   0.00003   0.00001   0.00062
                          26        27        28        29        30
  26        2S          0.06156
  27        3PX         0.00000   0.00046
  28        3PY         0.00000   0.00000   0.00063
  29        3PZ         0.00000  -0.00000   0.00000   0.00095
  30 5   H  1S         -0.00670   0.00006   0.00002   0.00061   0.36758
  31        2S         -0.00801   0.00003   0.00003   0.00034   0.10080
  32        3PX         0.00005   0.00000  -0.00000   0.00001   0.00000
  33        3PY        -0.00002   0.00000   0.00000   0.00000   0.00000
  34        3PZ         0.00036   0.00001  -0.00000   0.00007   0.00000
                          31        32        33        34
  31        2S          0.06156
  32        3PX         0.00000   0.00040
  33        3PY         0.00000  -0.00000   0.00073
  34        3PZ         0.00000  -0.00000  -0.00000   0.00091
     Gross orbital populations:
                           1
   1 1   C  1S          1.98457
   2        2S          0.87259
   3        3S          0.16609
   4        4PX         0.71581
   5        4PY         0.71581
   6        4PZ         0.71581
   7        5PX         0.30071
   8        5PY         0.30071
   9        5PZ         0.30072
  10        6D 0        0.00358
  11        6D+1        0.00284
  12        6D-1        0.00752
  13        6D+2        0.00146
  14        6D-2        0.00730
  15 2   H  1S          0.74136
  16        2S          0.21010
  17        3PX         0.00981
  18        3PY         0.00896
  19        3PZ         0.00588
  20 3   H  1S          0.74136
  21        2S          0.21010
  22        3PX         0.01141
  23        3PY         0.00750
  24        3PZ         0.00574
  25 4   H  1S          0.74136
  26        2S          0.21010
  27        3PX         0.00609
  28        3PY         0.00773
  29        3PZ         0.01083
  30 5   H  1S          0.74137
  31        2S          0.21010
  32        3PX         0.00556
  33        3PY         0.00868
  34        3PZ         0.01042
          Condensed to atoms (all electrons):
               1          2          3          4          5
     1  C    4.467470   0.407016   0.407016   0.407015   0.407016
     2  H    0.407016   0.632772  -0.021224  -0.021224  -0.021223
     3  H    0.407016  -0.021224   0.632771  -0.021224  -0.021224
     4  H    0.407015  -0.021224  -0.021224   0.632773  -0.021224
     5  H    0.407016  -0.021223  -0.021224  -0.021224   0.632772
 Mulliken charges:
               1
     1  C   -0.095533
     2  H    0.023884
     3  H    0.023884
     4  H    0.023883
     5  H    0.023883
 Sum of Mulliken charges =  -0.00000
 Mulliken charges with hydrogens summed into heavy atoms:
               1
     1  C   -0.000000
 Electronic spatial extent (au):  <R**2>=             35.2109
 Charge=             -0.0000 electrons
 Dipole moment (field-independent basis, Debye):
    X=             -0.0000    Y=             -0.0000    Z=              0.0000  Tot=              0.0000
 Quadrupole moment (field-independent basis, Debye-Ang):
   XX=             -8.2866   YY=             -8.2866   ZZ=             -8.2866
   XY=             -0.0000   XZ=             -0.0000   YZ=              0.0000
 Traceless Quadrupole moment (field-independent basis, Debye-Ang):
   XX=              0.0000   YY=              0.0000   ZZ=             -0.0000
   XY=             -0.0000   XZ=             -0.0000   YZ=              0.0000
 Octapole moment (field-independent basis, Debye-Ang**2):
  XXX=              0.1240  YYY=              0.0067  ZZZ=              0.0317  XYY=             -0.0663
  XXY=              0.4104  XXZ=              0.0528  XZZ=             -0.0577  YZZ=             -0.4171
  YYZ=             -0.0846  XYZ=              0.3162
 Hexadecapole moment (field-independent basis, Debye-Ang**3):
 XXXX=            -15.4739 YYYY=            -15.8567 ZZZZ=            -15.4921 XXXY=              0.0883
 XXXZ=              0.2915 YYYX=             -0.1190 YYYZ=              0.0301 ZZZX=             -0.2992
 ZZZY=              0.0083 XXYY=             -4.9035 XXZZ=             -5.2681 YYZZ=             -4.8853
 XXYZ=             -0.0384 YYXZ=              0.0076 ZZXY=              0.0307
 N-N= 1.353260594085D+01 E-N=-1.198633619745D+02  KE= 3.991900925697D+01
 There are a total of      107918 grid points.
 ElSum from          density=        9.9999999426
 ElSum from atomic densities=        9.9999998532
 Hirshfeld populations at iteration   1 (CA, CB, DipXYZ):
               1          2          3          4          5
     1  C    3.062087   3.062087   0.000000   0.000000  -0.000001
     2  H    0.484478   0.484478  -0.101630   0.091802  -0.039493
     3  H    0.484478   0.484478   0.117865   0.071926   0.035361
     4  H    0.484478   0.484478  -0.045101  -0.075417   0.112223
     5  H    0.484478   0.484478   0.028866  -0.088314  -0.108090
       Tot   5.000000   5.000000  -0.000000  -0.000002  -0.000000

 Dip from Atomic Chgs              0.000000   0.000000   0.000000
         Total Dipole             -0.000000  -0.000002   0.000000

 Hirshfeld charges, spin densities, dipoles, and CM5 charges using IRadAn=      5:
              Q-H        S-H        Dx         Dy         Dz        Q-CM5   
     1  C   -0.124173   0.000000   0.000000   0.000000  -0.000001  -0.319018
     2  H    0.031043   0.000000  -0.101630   0.091802  -0.039493   0.079754
     3  H    0.031043   0.000000   0.117865   0.071926   0.035361   0.079754
     4  H    0.031043   0.000000  -0.045101  -0.075417   0.112223   0.079754
     5  H    0.031043   0.000000   0.028866  -0.088314  -0.108090   0.079755
       Tot   0.000000   0.000000  -0.000000  -0.000002  -0.000000   0.000000
 Hirshfeld charges with hydrogens summed into heavy atoms:
              Q-H       Q-CM5   
     1  C    0.000000   0.000000
 
 EQQ= 0.000000000000E+00 EQD= 0.000000000000E+00 EDD=-0.109101505410E-02
 EQQ+QD+DD=-0.109101505410E-02
 
      MBS Density Matrix:
                           1         2         3         4         5
   1 1   C  1S          2.06878
   2        2S         -0.21558   0.84908
   3        2PX        -0.00000   0.00000   0.66268
   4        2PY         0.00000   0.00000   0.00000   0.66268
   5        2PZ         0.00000  -0.00000   0.00000  -0.00000   0.66269
   6 2   H  1S         -0.09130   0.22198  -0.42476   0.38369  -0.16506
   7 3   H  1S         -0.09130   0.22198   0.49261   0.30062   0.14779
   8 4   H  1S         -0.09130   0.22198  -0.18850  -0.31520   0.46904
   9 5   H  1S         -0.09130   0.22198   0.12064  -0.36910  -0.45176
                           6         7         8         9
   6 2   H  1S          0.59416
   7 3   H  1S         -0.11987   0.59416
   8 4   H  1S         -0.11987  -0.11987   0.59416
   9 5   H  1S         -0.11987  -0.11987  -0.11987   0.59416
    Full MBS Mulliken population analysis:
                           1         2         3         4         5
   1 1   C  1S          2.06878
   2        2S         -0.05354   0.84908
   3        2PX         0.00000   0.00000   0.66268
   4        2PY         0.00000   0.00000   0.00000   0.66268
   5        2PZ         0.00000   0.00000   0.00000   0.00000   0.66269
   6 2   H  1S         -0.00579   0.10994   0.14233   0.11613   0.02149
   7 3   H  1S         -0.00579   0.10994   0.19144   0.07129   0.01723
   8 4   H  1S         -0.00579   0.10994   0.02803   0.07838   0.17355
   9 5   H  1S         -0.00579   0.10994   0.01148   0.10747   0.16100
                           6         7         8         9
   6 2   H  1S          0.59416
   7 3   H  1S         -0.02069   0.59416
   8 4   H  1S         -0.02069  -0.02069   0.59416
   9 5   H  1S         -0.02069  -0.02069  -0.02069   0.59416
     MBS Gross orbital populations:
                           1
   1 1   C  1S          1.99208
   2        2S          1.23529
   3        2PX         1.03596
   4        2PY         1.03596
   5        2PZ         1.03596
   6 2   H  1S          0.91619
   7 3   H  1S          0.91619
   8 4   H  1S          0.91619
   9 5   H  1S          0.91618
          MBS Condensed to atoms (all electrons):
               1          2          3          4          5
     1  C    4.798832   0.384106   0.384106   0.384106   0.384107
     2  H    0.384106   0.594163  -0.020694  -0.020695  -0.020694
     3  H    0.384106  -0.020694   0.594163  -0.020694  -0.020695
     4  H    0.384106  -0.020695  -0.020694   0.594164  -0.020695
     5  H    0.384107  -0.020694  -0.020695  -0.020695   0.594162
 MBS Mulliken charges:
               1
     1  C   -0.335258
     2  H    0.083814
     3  H    0.083814
     4  H    0.083814
     5  H    0.083815
 Sum of MBS Mulliken charges =   0.00000
 MBS Mulliken charges with hydrogens summed into heavy atoms:
               1
     1  C    0.000000
 MBS Atomic Valencies and Mayer Atomic Bond Orders:
               1          2          3          4          5
     1  C    3.944423   0.986106   0.986106   0.986106   0.986106
     2  H    0.986106   0.992975   0.002290   0.002290   0.002290
     3  H    0.986106   0.002290   0.992975   0.002290   0.002290
     4  H    0.986106   0.002290   0.002290   0.992975   0.002290
     5  H    0.986106   0.002290   0.002290   0.002290   0.992975
 MBS Mayer-style numbers of lone pairs (5.000 valence pairs, 1.042 lone pairs):
               1
     1  C    1.195417
     2  H   -0.038395
     3  H   -0.038395
     4  H   -0.038395
     5  H   -0.038395
 BEBO parameters in MulMin, MxElBE=  0:
 ELP= 0.000000000000E+00 EBEBO= 0.218959437869E-15 Sum= 0.218959437869E-15
 ELP= 0.000000000000E+00 EBEBO= 0.218959437869E-15 EJK= 0.218959437869E-15 0.000000000000E+00 Sum= 0.218959437869E-15
 0 EA= 0.109479718935E-15 EB= 0.109479718935E-15 ETot= 0.218959437869E-15
 1 EA= 0.109479718935E-15 EB= 0.109479718935E-15 ETot= 0.218959437869E-15
 2 EA= 0.109479718935E-15 EB= 0.109479718935E-15 ETot= 0.218959437869E-15
 3 EJ= 0.218959437869E-15 EK= 0.000000000000E+00 ETot= 0.218959437869E-15
 4 EJ= 0.218959437869E-15 EK= 0.000000000000E+00 ETot= 0.218959437869E-15
 5 EA= 0.109479718935E-15 EB= 0.109479718935E-15 ETot= 0.218959437869E-15
 Orbital energies and kinetic energies (alpha):
                                 1                 2
   1         O               -10.169423         15.734480
   2         O                -0.688957          1.347753
   3         O                -0.392996          0.959091
   4         O                -0.392996          0.959090
   5         O                -0.392995          0.959090
   6         V                 0.073509          0.660842
   7         V                 0.146283          0.696114
   8         V                 0.146283          0.696115
   9         V                 0.146283          0.696112
  10         V                 0.416188          1.124447
  11         V                 0.416189          1.124448
  12         V                 0.416189          1.124448
  13         V                 0.661363          2.760117
  14         V                 0.685692          2.240172
  15         V                 0.685692          2.240172
  16         V                 0.685694          2.240175
  17         V                 0.784256          1.619876
  18         V                 1.093063          1.894233
  19         V                 1.093065          1.894235
  20         V                 1.541489          2.196291
  21         V                 1.541490          2.196293
  22         V                 1.541492          2.196295
  23         V                 1.771539          2.594939
  24         V                 1.771542          2.594941
  25         V                 1.771544          2.594942
  26         V                 2.147052          3.182578
  27         V                 2.147057          3.182585
  28         V                 2.147059          3.182587
  29         V                 2.544290          3.578979
  30         V                 2.544292          3.578982
  31         V                 2.630044          4.787386
  32         V                 2.924180          4.702493
  33         V                 2.924183          4.702498
  34         V                 2.924187          4.702508
 Total kinetic energy from orbitals= 3.991900925697D+01
 Running external command "gaunbo6 R"
         input file       "/scratch/yanfeig/Gau-33903.EIn"
         output file      "/scratch/yanfeig/Gau-33903.EOu"
         message file     "/scratch/yanfeig/Gau-33903.EMs"
         fchk file        "/scratch/yanfeig/Gau-33903.EFC"
         mat. el file     "/scratch/yanfeig/Gau-33903.EUF"

 Writing WrtUnf unformatted file "/scratch/yanfeig/Gau-33903.EUF"
 Gaussian matrix elements                                         Version   2 NLab=11 Len12L=8 Len4L=8
 Write SHELL TO ATOM MAP                   from file     0 offset           0 length                  18 to matrix element file.
 Write SHELL TYPES                         from file     0 offset           0 length                  18 to matrix element file.
 Write NUMBER OF PRIMITIVES PER SHELL      from file     0 offset           0 length                  18 to matrix element file.
 Write PRIMITIVE EXPONENTS                 from file     0 offset           0 length                  32 to matrix element file.
 Write CONTRACTION COEFFICIENTS            from file     0 offset           0 length                  32 to matrix element file.
 Write P(S=P) CONTRACTION COEFFICIENTS     from file     0 offset           0 length                  32 to matrix element file.
 Write COORDINATES OF EACH SHELL           from file     0 offset           0 length                  54 to matrix element file.
 Write BONDS PER ATOM                      from file     0 offset           0 length                   5 to matrix element file.
 Write BONDED ATOMS                        from file     0 offset           0 length                   8 to matrix element file.
 Write BOND TYPES                          from file     0 offset           0 length                   8 to matrix element file.
 Write GAUSSIAN SCALARS                    from file   501 offset           0 to matrix element file.
 Write INTEGER ISO                         from file     0 offset           0 length                   5 to matrix element file.
 Write INTEGER SPIN                        from file     0 offset           0 length                   5 to matrix element file.
 Write REAL ZEFFECTIVE                     from file     0 offset           0 length                   5 to matrix element file.
 Write REAL GFACTOR                        from file     0 offset           0 length                   5 to matrix element file.
 Write REAL ZNUCLEAR                       from file     0 offset           0 length                   5 to matrix element file.
 Write MULLIKEN CHARGES                    from file     0 offset           0 length                   5 to matrix element file.
 Write MBS CHARGES                         from file     0 offset           0 length                   5 to matrix element file.
 Write NUCLEAR GRADIENT                    from file 10584 offset           0 length                  15 to matrix element file.
 Array NUCLEAR FORCE CONSTANTS              on  file 10585 does not exist.
 Write ELECTRIC DIPOLE MOMENT              from file     0 offset           0 length                   3 to matrix element file.
 Write NON-ADIABATIC COUPLING              from file 10810 offset           0 length                  15 to matrix element file.
 Write OVERLAP                             from file 10514 offset           0 length                 595 to matrix element file.
 Write CORE HAMILTONIAN ALPHA              from file 10515 offset           0 length                 595 to matrix element file.
 Write CORE HAMILTONIAN BETA               from file 10515 offset         595 length                 595 to matrix element file.
 Write KINETIC ENERGY                      from file 10516 offset           0 length                 595 to matrix element file.
 Write ORTHOGONAL BASIS                    from file 10685 offset           0 length                1156 to matrix element file.
 Write DIPOLE INTEGRALS                    from file 10518 offset           0 length                1785 to matrix element file.
 Write DIP VEL INTEGRALS                   from file 10572 offset           0 length                1785 to matrix element file.
 Write R X DEL INTEGRALS                   from file 10572 offset        1785 length                1785 to matrix element file.
 Write ALPHA ORBITAL ENERGIES              from file     0 offset           0 length                  34 to matrix element file.
 Write ALPHA MO COEFFICIENTS               from file 10524 offset           0 length                1156 to matrix element file.
 Write ALPHA DENSITY MATRIX                from file     0 offset           0 length                 595 to matrix element file.
 Write ALPHA SCF DENSITY MATRIX            from file 10528 offset           0 length                 595 to matrix element file.
 Write ALPHA FOCK MATRIX                   from file 10536 offset           0 length                 595 to matrix element file.
 Write ALPHA DENSITY DERIVATIVES                                        from file 10592 offset           0 length                1785 to matrix element file.
 Write ALPHA MO DERIVATIVES                from file     0 offset           0 length                 510 to matrix element file.
 Write ALPHA SCF DENSITY                   from file     0 offset           0 length                 595 to matrix element file.
 Write TRANS MO COEFFICIENTS               from file 10548 offset           0 length                1156 to matrix element file.
 Compute GIAO d2H/dBdm
 ShPair: Thresh= 1.00D-12 NBox=     0 BxSize= 0.00D+00 RnKept= 3.34D+00
         NSMCal=                  171 NSMKep=                 171
 Compute GIAO d2H/dBdm, IAt=     1 NDo=     2
 Compute GIAO d2H/dBdm, IAt=     3 NDo=     2
 Compute GIAO d2H/dBdm, IAt=     5 NDo=     1
 Write GIAO D2H/DBDM                       from file 19999 offset           0 length               26775 to matrix element file.
 Compute GIAO L/R3
 Compute GIAO L/R3, IAt=     1 NDo=     2
 Compute GIAO L/R3, IAt=     3 NDo=     2
 Compute GIAO L/R3, IAt=     5 NDo=     1
 Write GIAO L/R3                           from file 19999 offset           0 length                8925 to matrix element file.
 No 2e integrals to process.
 Perform NBO analysis...

 *********************************** NBO 6.0 ***********************************
             N A T U R A L   A T O M I C   O R B I T A L   A N D
          N A T U R A L   B O N D   O R B I T A L   A N A L Y S I S
 **************************** Robert Paton (100196) ****************************
  (c) Copyright 1996-2018 Board of Regents of the University of Wisconsin System
      on behalf of the Theoretical Chemistry Institute.  All rights reserved.

          Cite this program [NBO 6.0.18 (11-Mar-2018)] as:

          NBO 6.0.  E. D. Glendening, J. K. Badenhoop, A. E. Reed,
          J. E. Carpenter, J. A. Bohmann, C. M. Morales, C. R. Landis,
          and F. Weinhold (Theoretical Chemistry Institute, University
          of Wisconsin, Madison, WI, 2013); http://nbo6.chem.wisc.edu/

       /NCS    / : Natural Chemical Shielding Analysis
       /BNDIDX / : Print bond indices based on the NAO density matrix

 Filename set to /scratch/yanfeig/Gau-33903

 Job title:  None


 NATURAL POPULATIONS:  Natural atomic orbital occupancies

  NAO Atom No lang   Type(AO)    Occupancy      Energy
 -------------------------------------------------------
   1    C  1  s      Cor( 1s)     1.99993     -10.16710
   2    C  1  s      Val( 2s)     1.16817      -0.18209
   3    C  1  s      Ryd( 3s)     0.00002       0.75837
   4    C  1  px     Val( 2p)     1.22340      -0.06651
   5    C  1  px     Ryd( 3p)     0.00000       0.52080
   6    C  1  py     Val( 2p)     1.22340      -0.06651
   7    C  1  py     Ryd( 3p)     0.00000       0.52080
   8    C  1  pz     Val( 2p)     1.22340      -0.06651
   9    C  1  pz     Ryd( 3p)     0.00000       0.52080
  10    C  1  dxy    Ryd( 3d)     0.00085       2.41941
  11    C  1  dxz    Ryd( 3d)     0.00033       2.19283
  12    C  1  dyz    Ryd( 3d)     0.00087       2.43069
  13    C  1  dx2y2  Ryd( 3d)     0.00017       2.12274
  14    C  1  dz2    Ryd( 3d)     0.00041       2.23038

  15    H  2  s      Val( 1s)     0.78816       0.09156
  16    H  2  s      Ryd( 2s)     0.00050       0.33502
  17    H  2  px     Ryd( 2p)     0.00049       2.07706
  18    H  2  py     Ryd( 2p)     0.00043       2.00956
  19    H  2  pz     Ryd( 2p)     0.00019       1.76572

  20    H  3  s      Val( 1s)     0.78816       0.09156
  21    H  3  s      Ryd( 2s)     0.00050       0.33502
  22    H  3  px     Ryd( 2p)     0.00062       2.20358
  23    H  3  py     Ryd( 2p)     0.00031       1.89403
  24    H  3  pz     Ryd( 2p)     0.00018       1.75473

  25    H  4  s      Val( 1s)     0.78816       0.09156
  26    H  4  s      Ryd( 2s)     0.00050       0.33502
  27    H  4  px     Ryd( 2p)     0.00020       1.78256
  28    H  4  py     Ryd( 2p)     0.00033       1.91228
  29    H  4  pz     Ryd( 2p)     0.00057       2.15750

  30    H  5  s      Val( 1s)     0.78816       0.09157
  31    H  5  s      Ryd( 2s)     0.00050       0.33502
  32    H  5  px     Ryd( 2p)     0.00016       1.73993
  33    H  5  py     Ryd( 2p)     0.00040       1.98725
  34    H  5  pz     Ryd( 2p)     0.00054       2.12517


 Summary of Natural Population Analysis:

                                     Natural Population
             Natural    ---------------------------------------------
  Atom No    Charge        Core      Valence    Rydberg      Total
 --------------------------------------------------------------------
    C  1   -0.84094      1.99993     4.83836    0.00265     6.84094
    H  2    0.21024      0.00000     0.78816    0.00160     0.78976
    H  3    0.21024      0.00000     0.78816    0.00160     0.78976
    H  4    0.21024      0.00000     0.78816    0.00160     0.78976
    H  5    0.21024      0.00000     0.78816    0.00160     0.78976
 ====================================================================
 * Total *  0.00000      1.99993     7.99101    0.00906    10.00000

                                 Natural Population
 ---------------------------------------------------------
   Core                       1.99993 ( 99.9963% of    2)
   Valence                    7.99101 ( 99.8876% of    8)
   Natural Minimal Basis      9.99094 ( 99.9094% of   10)
   Natural Rydberg Basis      0.00906 (  0.0906% of   10)
 ---------------------------------------------------------

    Atom No         Natural Electron Configuration
 ----------------------------------------------------------------------------
      C  1      [core]2s( 1.17)2p( 3.67)
      H  2            1s( 0.79)
      H  3            1s( 0.79)
      H  4            1s( 0.79)
      H  5            1s( 0.79)


 Wiberg bond index matrix in the NAO basis:

     Atom    1       2       3       4       5
     ---- ------  ------  ------  ------  ------
   1.  C  0.0000  0.9552  0.9552  0.9552  0.9552
   2.  H  0.9552  0.0000  0.0006  0.0006  0.0006
   3.  H  0.9552  0.0006  0.0000  0.0006  0.0006
   4.  H  0.9552  0.0006  0.0006  0.0000  0.0006
   5.  H  0.9552  0.0006  0.0006  0.0006  0.0000


 Wiberg bond index, Totals by atom:

     Atom    1
     ---- ------
   1.  C  3.8209
   2.  H  0.9571
   3.  H  0.9571
   4.  H  0.9571
   5.  H  0.9571


 NBI: Natural Binding Index (NCU strength parameters)

     Atom    1       2       3       4       5
     ---- ------  ------  ------  ------  ------
   1.  C  0.0000  0.9774  0.9774  0.9774  0.9774
   2.  H  0.9774  0.0000  0.0248  0.0248  0.0248
   3.  H  0.9774  0.0248  0.0000  0.0248  0.0248
   4.  H  0.9774  0.0248  0.0248  0.0000  0.0248
   5.  H  0.9774  0.0248  0.0248  0.0248  0.0000


 NATURAL BOND ORBITAL ANALYSIS:

                            Occupancies       Lewis Structure    Low   High
         Max    Occ     -------------------  -----------------   occ   occ
  Cycle  Ctr   Thresh    Lewis   non-Lewis     CR  BD  nC  LP    (L)   (NL)
 ============================================================================
    1     2     1.90     9.99553   0.00447      1   4   0   0     0      0
 ----------------------------------------------------------------------------

 Structure accepted: No low occupancy Lewis orbitals

 -------------------------------------------------------
   Core                      1.99993 ( 99.996% of   2)
   Valence Lewis             7.99560 ( 99.945% of   8)
  ==================      =============================
   Total Lewis               9.99553 ( 99.955% of  10)
  -----------------------------------------------------
   Valence non-Lewis         0.00120 (  0.012% of  10)
   Rydberg non-Lewis         0.00327 (  0.033% of  10)
  ==================      =============================
   Total non-Lewis           0.00447 (  0.045% of  10)
 -------------------------------------------------------


     (Occupancy)   Bond orbital / Coefficients / Hybrids
 ------------------ Lewis ------------------------------------------------------
   1. (1.99993) CR ( 1) C  1            s(100.00%)
                                         1.0000  0.0000  0.0000  0.0000  0.0000
                                         0.0000  0.0000  0.0000  0.0000  0.0000
                                         0.0000  0.0000  0.0000  0.0000
   2. (1.99890) BD ( 1) C  1- H  2
               ( 60.54%)   0.7781* C  1 s( 25.00%)p 3.00( 74.95%)d 0.00(  0.05%)
                                         0.0000  0.5000  0.0000 -0.6173  0.0000
                                         0.5576  0.0000 -0.2399  0.0000 -0.0184
                                         0.0079 -0.0072  0.0019 -0.0089
               ( 39.46%)   0.6282* H  2 s( 99.90%)p 0.00(  0.10%)
                                         0.9995  0.0007  0.0224 -0.0202  0.0087
   3. (1.99890) BD ( 1) C  1- H  3
               ( 60.54%)   0.7781* C  1 s( 25.00%)p 3.00( 74.95%)d 0.00(  0.05%)
                                         0.0000  0.5000  0.0000  0.7159  0.0000
                                         0.4369  0.0000  0.2148  0.0000  0.0167
                                         0.0082  0.0050  0.0086 -0.0094
               ( 39.46%)   0.6282* H  3 s( 99.90%)p 0.00(  0.10%)
                                         0.9995  0.0007 -0.0260 -0.0159 -0.0078
   4. (1.99890) BD ( 1) C  1- H  4
               ( 60.54%)   0.7781* C  1 s( 25.00%)p 3.00( 74.95%)d 0.00(  0.05%)
                                         0.0000  0.5000  0.0000 -0.2739  0.0000
                                        -0.4581  0.0000  0.6816  0.0000  0.0067
                                        -0.0100 -0.0167 -0.0036  0.0100
               ( 39.46%)   0.6282* H  4 s( 99.90%)p 0.00(  0.10%)
                                         0.9995  0.0007  0.0099  0.0166 -0.0247
   5. (1.99890) BD ( 1) C  1- H  5
               ( 60.54%)   0.7781* C  1 s( 25.00%)p 3.00( 74.95%)d 0.00(  0.05%)
                                         0.0000  0.5000  0.0000  0.1753  0.0000
                                        -0.5364  0.0000 -0.6565  0.0000 -0.0050
                                        -0.0062  0.0189 -0.0069  0.0084
               ( 39.46%)   0.6282* H  5 s( 99.90%)p 0.00(  0.10%)
                                         0.9995  0.0007 -0.0064  0.0195  0.0238
 ---------------- non-Lewis ----------------------------------------------------
   6. (0.00030) BD*( 1) C  1- H  2
               ( 39.46%)   0.6282* C  1 s( 25.00%)p 3.00( 74.95%)d 0.00(  0.05%)
                                         0.0000 -0.5000  0.0000  0.6173  0.0000
                                        -0.5576  0.0000  0.2399  0.0000  0.0184
                                        -0.0079  0.0072 -0.0019  0.0089
               ( 60.54%)  -0.7781* H  2 s( 99.90%)p 0.00(  0.10%)
                                        -0.9995 -0.0007 -0.0224  0.0202 -0.0087
   7. (0.00030) BD*( 1) C  1- H  3
               ( 39.46%)   0.6282* C  1 s( 25.00%)p 3.00( 74.95%)d 0.00(  0.05%)
                                         0.0000 -0.5000  0.0000 -0.7159  0.0000
                                        -0.4369  0.0000 -0.2148  0.0000 -0.0167
                                        -0.0082 -0.0050 -0.0086  0.0094
               ( 60.54%)  -0.7781* H  3 s( 99.90%)p 0.00(  0.10%)
                                        -0.9995 -0.0007  0.0260  0.0159  0.0078
   8. (0.00030) BD*( 1) C  1- H  4
               ( 39.46%)   0.6282* C  1 s( 25.00%)p 3.00( 74.95%)d 0.00(  0.05%)
                                         0.0000 -0.5000  0.0000  0.2739  0.0000
                                         0.4581  0.0000 -0.6816  0.0000 -0.0067
                                         0.0100  0.0167  0.0036 -0.0100
               ( 60.54%)  -0.7781* H  4 s( 99.90%)p 0.00(  0.10%)
                                        -0.9995 -0.0007 -0.0099 -0.0166  0.0247
   9. (0.00030) BD*( 1) C  1- H  5
               ( 39.46%)   0.6282* C  1 s( 25.00%)p 3.00( 74.95%)d 0.00(  0.05%)
                                         0.0000 -0.5000  0.0000 -0.1753  0.0000
                                         0.5364  0.0000  0.6565  0.0000  0.0050
                                         0.0062 -0.0189  0.0069 -0.0084
               ( 60.54%)  -0.7781* H  5 s( 99.90%)p 0.00(  0.10%)
                                        -0.9995 -0.0007  0.0064 -0.0195 -0.0238
  10. (0.00002) RY ( 1) C  1            s(100.00%)p 0.00(  0.00%)d 0.00(  0.00%)
  11. (0.00000) RY ( 2) C  1            s(  0.00%)p 1.00(100.00%)
  12. (0.00000) RY ( 3) C  1            s(  0.00%)p 1.00(100.00%)
  13. (0.00000) RY ( 4) C  1            s(  0.00%)p 1.00(100.00%)
  14. (0.00000) RY ( 5) C  1            s(  0.00%)p 1.00(  0.07%)d99.99( 99.93%)
  15. (0.00000) RY ( 6) C  1            s(  0.00%)p 1.00(  0.03%)d99.99( 99.97%)
  16. (0.00000) RY ( 7) C  1            s(  0.00%)p 1.00(  0.07%)d99.99( 99.93%)
  17. (0.00000) RY ( 8) C  1            s(  0.00%)p 1.00(  0.01%)d99.99( 99.99%)
  18. (0.00000) RY ( 9) C  1            s(  0.00%)p 1.00(  0.03%)d99.99( 99.97%)
  19. (0.00055) RY ( 1) H  2            s( 90.57%)p 0.10(  9.43%)
                                         0.0089  0.9517 -0.2189  0.1977 -0.0851
  20. (0.00013) RY ( 2) H  2            s(  0.00%)p 1.00(100.00%)
                                         0.0000  0.0000  0.4652  0.7303  0.5003
  21. (0.00013) RY ( 3) H  2            s(  0.00%)p 1.00(100.00%)
                                         0.0000  0.0000 -0.5246 -0.2278  0.8203
  22. (0.00000) RY ( 4) H  2            s(  9.52%)p 9.50( 90.48%)
  23. (0.00055) RY ( 1) H  3            s( 90.57%)p 0.10(  9.43%)
                                         0.0089  0.9517  0.2539  0.1549  0.0762
  24. (0.00013) RY ( 2) H  3            s(  0.00%)p 1.00(100.00%)
                                         0.0000  0.0000 -0.5028  0.8611 -0.0758
  25. (0.00013) RY ( 3) H  3            s(  0.00%)p 1.00(100.00%)
                                         0.0000  0.0000 -0.2519 -0.0621  0.9658
  26. (0.00000) RY ( 4) H  3            s(  9.52%)p 9.50( 90.48%)
  27. (0.00055) RY ( 1) H  4            s( 90.57%)p 0.10(  9.43%)
                                         0.0089  0.9517 -0.0971 -0.1624  0.2417
  28. (0.00013) RY ( 2) H  4            s(  0.00%)p 1.00(100.00%)
                                         0.0000  0.0000 -0.3397  0.8382  0.4268
  29. (0.00013) RY ( 3) H  4            s(  0.00%)p 1.00(100.00%)
                                         0.0000  0.0000  0.8857  0.1324  0.4449
  30. (0.00000) RY ( 4) H  4            s(  9.52%)p 9.50( 90.48%)
  31. (0.00055) RY ( 1) H  5            s( 90.57%)p 0.10(  9.43%)
                                         0.0089  0.9517  0.0622 -0.1902 -0.2328
  32. (0.00013) RY ( 2) H  5            s(  0.00%)p 1.00(100.00%)
                                         0.0000  0.0000  0.9136 -0.1593  0.3741
  33. (0.00013) RY ( 3) H  5            s(  0.00%)p 1.00(100.00%)
                                         0.0000  0.0000  0.3526  0.7686 -0.5338
  34. (0.00000) RY ( 4) H  5            s(  9.52%)p 9.50( 90.48%)


 NHO DIRECTIONALITY AND BOND BENDING (deviation from line of nuclear centers at
                                      the position of maximum hybrid amplitude)

         [Thresholds for printing:  angular deviation  >  1.0 degree]
                                    p- or d-character  > 25.0%
                                    orbital occupancy  >  0.10e

                        Line of Centers        Hybrid 1             Hybrid 2
                        ---------------  -------------------  ------------------
           NBO            Theta   Phi    Theta   Phi    Dev   Theta   Phi    Dev
 ===============================================================================
    None exceeding thresholds


 SECOND ORDER PERTURBATION THEORY ANALYSIS OF FOCK MATRIX IN NBO BASIS

     Threshold for printing:   0.50 kcal/mol
                                                          E(2) E(NL)-E(L) F(L,NL)
      Donor (L) NBO              Acceptor (NL) NBO      kcal/mol   a.u.    a.u.
 ===============================================================================

 within unit  1
       None above threshold


 NATURAL BOND ORBITALS (Summary):

                                                     Principal Delocalizations
           NBO                 Occupancy    Energy   (geminal,vicinal,remote)
 ===============================================================================
 Molecular unit  1  (CH4)
 ------ Lewis --------------------------------------
    1. CR ( 1) C  1             1.99993   -10.16710
    2. BD ( 1) C  1- H  2       1.99890    -0.46654
    3. BD ( 1) C  1- H  3       1.99890    -0.46654
    4. BD ( 1) C  1- H  4       1.99890    -0.46654
    5. BD ( 1) C  1- H  5       1.99890    -0.46654
 ------ non-Lewis ----------------------------------
    6. BD*( 1) C  1- H  2       0.00030     0.47498
    7. BD*( 1) C  1- H  3       0.00030     0.47498
    8. BD*( 1) C  1- H  4       0.00030     0.47498
    9. BD*( 1) C  1- H  5       0.00030     0.47499
   10. RY ( 1) C  1             0.00002     0.75837
   11. RY ( 2) C  1             0.00000     0.52080
   12. RY ( 3) C  1             0.00000     0.52080
   13. RY ( 4) C  1             0.00000     0.52080
   14. RY ( 5) C  1             0.00000     2.41426
   15. RY ( 6) C  1             0.00000     2.19079
   16. RY ( 7) C  1             0.00000     2.42537
   17. RY ( 8) C  1             0.00000     2.12166
   18. RY ( 9) C  1             0.00000     2.22792
   19. RY ( 1) H  2             0.00055     0.58504
   20. RY ( 2) H  2             0.00013     1.71034
   21. RY ( 3) H  2             0.00013     1.71034
   22. RY ( 4) H  2             0.00000     2.17338
   23. RY ( 1) H  3             0.00055     0.58504
   24. RY ( 2) H  3             0.00013     1.71034
   25. RY ( 3) H  3             0.00013     1.71034
   26. RY ( 4) H  3             0.00000     2.17338
   27. RY ( 1) H  4             0.00055     0.58503
   28. RY ( 2) H  4             0.00013     1.71034
   29. RY ( 3) H  4             0.00013     1.71034
   30. RY ( 4) H  4             0.00000     2.17338
   31. RY ( 1) H  5             0.00055     0.58503
   32. RY ( 2) H  5             0.00013     1.71034
   33. RY ( 3) H  5             0.00013     1.71034
   34. RY ( 4) H  5             0.00000     2.17339
          -------------------------------
                 Total Lewis    9.99553  ( 99.9553%)
           Valence non-Lewis    0.00120  (  0.0120%)
           Rydberg non-Lewis    0.00327  (  0.0327%)
          -------------------------------
               Total unit  1   10.00000  (100.0000%)
              Charge unit  1    0.00000

 $CHOOSE
   BOND S 1 2 S 1 3 S 1 4 S 1 5 END
 $END


 NATURAL LOCALIZED MOLECULAR ORBITAL (NLMO) ANALYSIS:

 1 pass over DM reduced the maximum off-diagonal element to 0.53E-10

 Hybridization/Polarization Analysis of NLMOs in NAO Basis:
 NLMO / Occupancy / Percent from Parent NBO / Atomic Hybrid Contributions
 -------------------------------------------------------------------------------
   1. (2.00000)  99.9963% CR ( 1) C  1
                          99.998%  C  1 s(100.00%)p 0.00(  0.00%)d 0.00(  0.00%)
   2. (2.00000)  99.9450% BD ( 1) C  1- H  2
                          60.512%  C  1 s( 24.13%)p 3.14( 75.81%)d 0.00(  0.05%)
                          39.439%  H  2 s( 99.90%)p 0.00(  0.10%)
                           0.016%  H  3 s( 67.41%)p 0.48( 32.59%)
                           0.016%  H  4 s( 67.41%)p 0.48( 32.59%)
                           0.016%  H  5 s( 67.41%)p 0.48( 32.59%)
   3. (2.00000)  99.9450% BD ( 1) C  1- H  3
                          60.512%  C  1 s( 24.13%)p 3.14( 75.81%)d 0.00(  0.05%)
                           0.016%  H  2 s( 67.41%)p 0.48( 32.59%)
                          39.439%  H  3 s( 99.90%)p 0.00(  0.10%)
                           0.016%  H  4 s( 67.43%)p 0.48( 32.57%)
                           0.016%  H  5 s( 67.39%)p 0.48( 32.61%)
   4. (2.00000)  99.9450% BD ( 1) C  1- H  4
                          60.512%  C  1 s( 24.13%)p 3.14( 75.82%)d 0.00(  0.05%)
                           0.016%  H  2 s( 67.41%)p 0.48( 32.59%)
                           0.016%  H  3 s( 67.38%)p 0.48( 32.62%)
                          39.439%  H  4 s( 99.90%)p 0.00(  0.10%)
                           0.016%  H  5 s( 67.36%)p 0.48( 32.64%)
   5. (2.00000)  99.9450% BD ( 1) C  1- H  5
                          60.512%  C  1 s( 24.13%)p 3.14( 75.81%)d 0.00(  0.05%)
                           0.016%  H  2 s( 67.41%)p 0.48( 32.59%)
                           0.016%  H  3 s( 67.44%)p 0.48( 32.56%)
                           0.016%  H  4 s( 67.46%)p 0.48( 32.54%)
                          39.439%  H  5 s( 99.90%)p 0.00(  0.10%)

 Individual LMO bond orders greater than 0.002 in magnitude,
 with the overlap between the hybrids in the NLMO given:

 Atom I / Atom J / NLMO / Bond Order / Hybrid Overlap /
    1       2       2     0.7887753       0.7769493
    1       3       3     0.7887751       0.7769489
    1       4       4     0.7887745       0.7769411
    1       5       5     0.7887764       0.7769570


 Atom-Atom Net Linear NLMO/NPA Bond Orders:

     Atom    1       2       3       4       5
     ---- ------  ------  ------  ------  ------
   1.  C  0.0000  0.7897  0.7897  0.7897  0.7897
   2.  H  0.7897  0.0000 -0.0013 -0.0013 -0.0013
   3.  H  0.7897 -0.0013  0.0000 -0.0013 -0.0013
   4.  H  0.7897 -0.0013 -0.0013  0.0000 -0.0013
   5.  H  0.7897 -0.0013 -0.0013 -0.0013  0.0000


 Linear NLMO/NPA Bond Orders, Totals by Atom:

     Atom    1
     ---- ------
   1.  C  3.1590
   2.  H  0.7859
   3.  H  0.7859
   4.  H  0.7859
   5.  H  0.7859


 NATURAL CHEMICAL SHIELDING ANALYSIS:

 Summary of isotropic NMR chemical shielding
 Total Lewis (L) and non-Lewis (NL) contributions: (ppm)

        NBO           C  1    H  2    H  3    H  4    H  5
 ---------------    ------- ------- ------- ------- -------
   1.  C 1(cr)   L   198.46    0.00    0.00    0.00    0.00
                 NL   -0.13    0.00    0.00    0.00    0.00
   2.  C 1- H 2  L     0.19   24.95    2.19    2.19    2.19
                 NL   -0.44    0.22   -0.02   -0.02   -0.02
   3.  C 1- H 3  L     0.19    2.19   24.95    2.19    2.19
                 NL   -0.44   -0.02    0.22   -0.02   -0.02
   4.  C 1- H 4  L     0.19    2.19    2.19   24.95    2.19
                 NL   -0.44   -0.02   -0.02    0.22   -0.02
   5.  C 1- H 5  L     0.19    2.19    2.19    2.19   24.95
                 NL   -0.44   -0.02   -0.02   -0.02    0.22
 ---------------    ------- ------- ------- ------- -------
           Lewis     199.20   31.52   31.52   31.52   31.53
       non-Lewis      -1.89    0.16    0.16    0.16    0.16
 ---------------    ------- ------- ------- ------- -------
           Total     197.31   31.69   31.69   31.69   31.69

 Maximum scratch memory used by NBO was 292570 words (2.23 MB)
 Maximum scratch memory used by G16NBO was 50387 words (0.38 MB)

 Opening RunExU unformatted file "/scratch/yanfeig/Gau-33903.EUF"
 Read unf file /scratch/yanfeig/Gau-33903.EUF:
 Label Gaussian matrix elements                                         IVers= 1 NLab= 2 Version=EM64L-G16RevB.01
 Title None                                                            
 NAtoms=     5 NBasis=    34 NBsUse=    34 ICharg=     0 Multip=     1 NE=    10 Len12L=8 Len4L=8 IOpCl= 0 ICGU= -1
 GAUSSIAN SCALARS                    NI= 1 NR= 1 NTot=       1 LenBuf=    2 NRI=1 N=    1000
 NPA CHARGES                         NI= 0 NR= 1 NTot=       5 LenBuf=  256 NRI=1 N=       5
 Recovered energy= -40.4870354157     dipole=     -0.000000366867     -0.000001657508      0.000000071022
 1\1\GINC-NODE70\SP\RB3LYP\def2SVP\C1H4\YANFEIG\03-Feb-2020\0\\# b3lyp/
 def2svp nmr=GIAO scf=(maxcycle=512, xqc) pop=(full,mbs,hirshfeld,nbo6r
 ead)\\None\\0,1\C,0,0.,0.,0.\H,0,-0.64458,-0.76718,-0.40871\H,0,-0.346
 09,0.97258,-0.32466\H,0,-0.0221,-0.04843,1.08086\H,0,1.01277,-0.15697,
 -0.34748\\Version=EM64L-G16RevB.01\State=1-A\HF=-40.4870354\RMSD=1.285
 e-09\Dipole=0.0000013,-0.0000005,0.0000011\Quadrupole=0.0000025,0.0000
 062,-0.0000087,0.0000043,0.000002,-0.0000053\PG=C01 [X(C1H4)]\\@


 Until you make peace with who you are,
 you'll never be content with what you have.
                           -- Doris Mortman
 Job cpu time:       0 days  0 hours  1 minutes 13.3 seconds.
 Elapsed time:       0 days  0 hours  0 minutes  6.0 seconds.
 File lengths (MBytes):  RWF=      6 Int=      0 D2E=      0 Chk=      1 Scr=      1
 Normal termination of Gaussian 16 at Mon Feb  3 15:17:38 2020.
