 Entering Gaussian System, Link 0=/opt/g16/g16
 Initial command:
 /opt/g16/l1.exe "/scratch/yanfeig/Gau-34689.inp" -scrdir="/scratch/yanfeig/"
 Entering Link 1 = /opt/g16/l1.exe PID=     34691.
  
 Copyright (c) 1988-2017, Gaussian, Inc.  All Rights Reserved.
  
 This is part of the Gaussian(R) 16 program.  It is based on
 the Gaussian(R) 09 system (copyright 2009, Gaussian, Inc.),
 the Gaussian(R) 03 system (copyright 2003, Gaussian, Inc.),
 the Gaussian(R) 98 system (copyright 1998, Gaussian, Inc.),
 the Gaussian(R) 94 system (copyright 1995, Gaussian, Inc.),
 the Gaussian 92(TM) system (copyright 1992, Gaussian, Inc.),
 the Gaussian 90(TM) system (copyright 1990, Gaussian, Inc.),
 the Gaussian 88(TM) system (copyright 1988, Gaussian, Inc.),
 the Gaussian 86(TM) system (copyright 1986, Carnegie Mellon
 University), and the Gaussian 82(TM) system (copyright 1983,
 Carnegie Mellon University). Gaussian is a federally registered
 trademark of Gaussian, Inc.
  
 This software contains proprietary and confidential information,
 including trade secrets, belonging to Gaussian, Inc.
  
 This software is provided under written license and may be
 used, copied, transmitted, or stored only in accord with that
 written license.
  
 The following legend is applicable only to US Government
 contracts under FAR:
  
                    RESTRICTED RIGHTS LEGEND
  
 Use, reproduction and disclosure by the US Government is
 subject to restrictions as set forth in subparagraphs (a)
 and (c) of the Commercial Computer Software - Restricted
 Rights clause in FAR 52.227-19.
  
 Gaussian, Inc.
 340 Quinnipiac St., Bldg. 40, Wallingford CT 06492
  
  
 ---------------------------------------------------------------
 Warning -- This program may not be used in any manner that
 competes with the business of Gaussian, Inc. or will provide
 assistance to any competitor of Gaussian, Inc.  The licensee
 of this program is prohibited from giving any competitor of
 Gaussian, Inc. access to this program.  By using this program,
 the user acknowledges that Gaussian, Inc. is engaged in the
 business of creating and licensing software in the field of
 computational chemistry and represents and warrants to the
 licensee that it is not a competitor of Gaussian, Inc. and that
 it will not use this program in any manner prohibited above.
 ---------------------------------------------------------------
  

 Cite this work as:
 Gaussian 16, Revision B.01,
 M. J. Frisch, G. W. Trucks, H. B. Schlegel, G. E. Scuseria, 
 M. A. Robb, J. R. Cheeseman, G. Scalmani, V. Barone, 
 G. A. Petersson, H. Nakatsuji, X. Li, M. Caricato, A. V. Marenich, 
 J. Bloino, B. G. Janesko, R. Gomperts, B. Mennucci, H. P. Hratchian, 
 J. V. Ortiz, A. F. Izmaylov, J. L. Sonnenberg, D. Williams-Young, 
 F. Ding, F. Lipparini, F. Egidi, J. Goings, B. Peng, A. Petrone, 
 T. Henderson, D. Ranasinghe, V. G. Zakrzewski, J. Gao, N. Rega, 
 G. Zheng, W. Liang, M. Hada, M. Ehara, K. Toyota, R. Fukuda, 
 J. Hasegawa, M. Ishida, T. Nakajima, Y. Honda, O. Kitao, H. Nakai, 
 T. Vreven, K. Throssell, J. A. Montgomery, Jr., J. E. Peralta, 
 F. Ogliaro, M. J. Bearpark, J. J. Heyd, E. N. Brothers, K. N. Kudin, 
 V. N. Staroverov, T. A. Keith, R. Kobayashi, J. Normand, 
 K. Raghavachari, A. P. Rendell, J. C. Burant, S. S. Iyengar, 
 J. Tomasi, M. Cossi, J. M. Millam, M. Klene, C. Adamo, R. Cammi, 
 J. W. Ochterski, R. L. Martin, K. Morokuma, O. Farkas, 
 J. B. Foresman, and D. J. Fox, Gaussian, Inc., Wallingford CT, 2016.
 
 ******************************************
 Gaussian 16:  EM64L-G16RevB.01 20-Dec-2017
                 3-Feb-2020 
 ******************************************
 %chk=CHEMBL1521196_opt.chk
 %nprocshared=20
 Will use up to   20 processors via shared memory.
 ----------------------------------------------------------------------
 # b3lyp/def2svp nmr=GIAO scf=(maxcycle=512, xqc) pop=(full,mbs,hirshfe
 ld,nbo6read)
 ----------------------------------------------------------------------
 1/38=1,163=2,172=1/1;
 2/12=2,17=6,18=5,40=1/2;
 3/5=43,7=101,11=2,25=1,30=1,74=-5/1,2,3,8;
 4//1;
 5/5=2,7=512,8=3,13=1,38=5/2,8;
 8/6=1,10=90,11=11/1;
 10/13=100,45=16/2;
 6/7=3,27=100,28=1,40=2,64=1,79=1,113=1,114=1,124=2103,125=11000/1,12;
 99/9=1/99;
 ----
 None
 ----
 Symbolic Z-matrix:
 Charge =  0 Multiplicity = 1
 C                    -1.2127    0.65594  -0.12732 
 C                    -1.18234  -0.72019   0.02249 
 C                     0.03036  -1.37613   0.14981 
 C                     1.2127   -0.65594   0.12732 
 C                     1.18234   0.72019  -0.02249 
 C                    -0.03036   1.37613  -0.14981 
 H                    -2.15902   1.16779  -0.2267 
 H                    -2.10496  -1.28219   0.04 
 H                     0.05405  -2.44998   0.2667 
 H                     2.15902  -1.16779   0.2267 
 H                     2.10496   1.28219  -0.04 
 H                    -0.05405   2.44998  -0.2667 
 
                          Input orientation:                          
 ---------------------------------------------------------------------
 Center     Atomic      Atomic             Coordinates (Angstroms)
 Number     Number       Type             X           Y           Z
 ---------------------------------------------------------------------
      1          6           0       -1.212700    0.655940   -0.127320
      2          6           0       -1.182340   -0.720190    0.022490
      3          6           0        0.030360   -1.376130    0.149810
      4          6           0        1.212700   -0.655940    0.127320
      5          6           0        1.182340    0.720190   -0.022490
      6          6           0       -0.030360    1.376130   -0.149810
      7          1           0       -2.159020    1.167790   -0.226700
      8          1           0       -2.104960   -1.282190    0.040000
      9          1           0        0.054050   -2.449980    0.266700
     10          1           0        2.159020   -1.167790    0.226700
     11          1           0        2.104960    1.282190   -0.040000
     12          1           0       -0.054050    2.449980   -0.266700
 ---------------------------------------------------------------------
                    Distance matrix (angstroms):
                    1          2          3          4          5
     1  C    0.000000
     2  C    1.384593   0.000000
     3  C    2.398188   1.384597   0.000000
     4  C    2.769194   2.398194   1.384596   0.000000
     5  C    2.398194   2.769193   2.398187   1.384593   0.000000
     6  C    1.384596   2.398187   2.769187   2.398188   1.384597
     7  H    1.080457   2.140203   3.377377   3.849652   3.377386
     8  H    2.140204   1.080453   2.140204   3.377378   3.849646
     9  H    3.377373   2.140204   1.080453   2.140205   3.377373
    10  H    3.849652   3.377386   2.140213   1.080457   2.140203
    11  H    3.377378   3.849646   3.377374   2.140204   1.080453
    12  H    2.140205   3.377373   3.849639   3.377373   2.140204
                    6          7          8          9         10
     6  C    0.000000
     7  H    2.140213   0.000000
     8  H    3.377374   2.465046   0.000000
     9  H    3.849639   4.269588   2.465046   0.000000
    10  H    3.377377   4.930109   4.269598   2.465058   0.000000
    11  H    2.140204   4.269598   4.930098   4.269589   2.465046
    12  H    1.080453   2.465058   4.269589   4.930092   4.269588
                   11         12
    11  H    0.000000
    12  H    2.465046   0.000000
 Stoichiometry    C6H6
 Framework group  CI[X(C6H6)]
 Deg. of freedom    15
 Full point group                 CI      NOp   2
 Largest Abelian subgroup         CI      NOp   2
 Largest concise Abelian subgroup CI      NOp   2
                         Standard orientation:                         
 ---------------------------------------------------------------------
 Center     Atomic      Atomic             Coordinates (Angstroms)
 Number     Number       Type             X           Y           Z
 ---------------------------------------------------------------------
      1          6           0       -1.212700    0.655940   -0.127320
      2          6           0       -1.182340   -0.720190    0.022490
      3          6           0        0.030360   -1.376130    0.149810
      4          6           0        1.212700   -0.655940    0.127320
      5          6           0        1.182340    0.720190   -0.022490
      6          6           0       -0.030360    1.376130   -0.149810
      7          1           0       -2.159020    1.167790   -0.226700
      8          1           0       -2.104960   -1.282190    0.040000
      9          1           0        0.054050   -2.449980    0.266700
     10          1           0        2.159020   -1.167790    0.226700
     11          1           0        2.104960    1.282190   -0.040000
     12          1           0       -0.054050    2.449980   -0.266700
 ---------------------------------------------------------------------
 Rotational constants (GHZ):           5.7831924           5.7831543           2.8915867
 Standard basis: def2SVP (5D, 7F)
 There are    60 symmetry adapted cartesian basis functions of AG  symmetry.
 There are    60 symmetry adapted cartesian basis functions of AU  symmetry.
 There are    57 symmetry adapted basis functions of AG  symmetry.
 There are    57 symmetry adapted basis functions of AU  symmetry.
   114 basis functions,   192 primitive gaussians,   120 cartesian basis functions
    21 alpha electrons       21 beta electrons
       nuclear repulsion energy       204.8705961574 Hartrees.
 NAtoms=   12 NActive=   12 NUniq=    6 SFac= 4.00D+00 NAtFMM=   60 NAOKFM=F Big=F
 Integral buffers will be    131072 words long.
 Raffenetti 2 integral format.
 Two-electron integral symmetry is turned on.
 One-electron integrals computed using PRISM.
   2 Symmetry operations used in ECPInt.
 ECPInt:  NShTT=    1485 NPrTT=    5349 LenC2=    1486 LenP2D=    4584.
 LDataN:  DoStor=T MaxTD1= 4 Len=   56
 NBasis=   114 RedAO= T EigKep=  2.95D-04  NBF=    57    57
 NBsUse=   114 1.00D-06 EigRej= -1.00D+00 NBFU=    57    57
 ExpMin= 1.22D-01 ExpMax= 1.24D+03 ExpMxC= 1.86D+02 IAcc=3 IRadAn=         5 AccDes= 0.00D+00
 Harris functional with IExCor=  402 and IRadAn=       5 diagonalized for initial guess.
 HarFok:  IExCor=  402 AccDes= 0.00D+00 IRadAn=         5 IDoV= 1 UseB2=F ITyADJ=14
 ICtDFT=  3500011 ScaDFX=  1.000000  1.000000  1.000000  1.000000
 FoFCou: FMM=F IPFlag=           0 FMFlag=      100000 FMFlg1=           0
         NFxFlg=           0 DoJE=T BraDBF=F KetDBF=T FulRan=T
         wScrn=  0.000000 ICntrl=       500 IOpCl=  0 I1Cent=   200000004 NGrid=           0
         NMat0=    1 NMatS0=      1 NMatT0=    0 NMatD0=    1 NMtDS0=    0 NMtDT0=    0
 Petite list used in FoFCou.
 Initial guess orbital symmetries:
       Occupied  (AG) (AU) (AU) (AU) (AG) (AG) (AG) (AU) (AU) (AG)
                 (AG) (AG) (AU) (AU) (AU) (AU) (AU) (AG) (AG) (AG)
                 (AG)
       Virtual   (AU) (AU) (AG) (AG) (AU) (AU) (AG) (AG) (AU) (AG)
                 (AG) (AU) (AU) (AG) (AU) (AG) (AU) (AU) (AU) (AU)
                 (AG) (AG) (AG) (AG) (AG) (AU) (AU) (AU) (AU) (AG)
                 (AG) (AG) (AU) (AG) (AG) (AG) (AU) (AU) (AU) (AG)
                 (AU) (AU) (AU) (AG) (AG) (AG) (AU) (AU) (AG) (AG)
                 (AU) (AG) (AU) (AG) (AG) (AU) (AU) (AU) (AU) (AG)
                 (AG) (AU) (AU) (AU) (AG) (AG) (AU) (AG) (AG) (AU)
                 (AU) (AG) (AU) (AG) (AG) (AG) (AG) (AU) (AU) (AG)
                 (AG) (AG) (AU) (AU) (AU) (AG) (AU) (AU) (AU) (AG)
                 (AG) (AG) (AU)
 The electronic state of the initial guess is 1-AG.
 Keep R1 ints in memory in symmetry-blocked form, NReq=40450998.
 Requested convergence on RMS density matrix=1.00D-08 within 128 cycles.
 Requested convergence on MAX density matrix=1.00D-06.
 Requested convergence on             energy=1.00D-06.
 No special actions if energy rises.
 Integral accuracy reduced to 1.0D-05 until final iterations.
 Initial convergence to 1.0D-05 achieved.  Increase integral accuracy.
 SCF Done:  E(RB3LYP) =  -232.082903840     A.U. after   10 cycles
            NFock= 10  Conv=0.33D-08     -V/T= 2.0107
 QCSCF skips out because SCF is already converged.
 DoSCS=F DFT=T ScalE2(SS,OS)=  1.000000  1.000000
 Range of M.O.s used for correlation:     1   114
 NBasis=   114 NAE=    21 NBE=    21 NFC=     0 NFV=     0
 NROrb=    114 NOA=    21 NOB=    21 NVA=    93 NVB=    93

 **** Warning!!: The largest alpha MO coefficient is  0.16781559D+02

          Differentiating once with respect to magnetic field using GIAOs.
          Electric field/nuclear overlap derivatives assumed to be zero.
 Keep R3 ints in memory in symmetry-blocked form, NReq=42430364.
   1 Symmetry operations used in ECPInt.
 ECPInt:  NShTT=    1485 NPrTT=    5349 LenC2=    1486 LenP2D=    5349.
 LDataN:  DoStor=T MaxTD1= 5 Len=  102
 FoFJK:  IHMeth= 1 ICntrl=    6127 DoSepK=F KAlg= 0 I1Cent=           0 FoldK=F
 IRaf=         1 NMat=       1 IRICut=       1 DoRegI=T DoRafI=F ISym2E= 0 IDoP0=0 IntGTp=1.
          There are     3 degrees of freedom in the 1st order CPHF.  IDoFFX=0 NUNeed=     3.
      3 vectors produced by pass  0 Test12= 6.51D-14 3.33D-08 XBig12= 4.67D+00 8.91D-01.
 AX will form     3 AO Fock derivatives at one time.
      3 vectors produced by pass  1 Test12= 6.51D-14 3.33D-08 XBig12= 3.13D-03 2.17D-02.
      3 vectors produced by pass  2 Test12= 6.51D-14 3.33D-08 XBig12= 1.57D-06 4.74D-04.
      3 vectors produced by pass  3 Test12= 6.51D-14 3.33D-08 XBig12= 1.28D-09 1.04D-05.
      3 vectors produced by pass  4 Test12= 6.51D-14 3.33D-08 XBig12= 1.54D-12 4.17D-07.
 InvSVY:  IOpt=1 It=  1 EMax= 2.22D-16
 Solved reduced A of dimension    15 with     3 vectors.
 Calculating GIAO nuclear magnetic shielding tensors.
 SCF GIAO Magnetic shielding tensor (ppm):
      1  C    Isotropic =    67.5289   Anisotropy =   177.1063
   XX=   -14.2983   YX=    35.1876   ZX=   -13.1226
   XY=    35.1898   YY=    33.8390   ZY=    18.0083
   XZ=   -13.1179   YZ=    18.0039   ZZ=   183.0461
   Eigenvalues:   -34.7097    51.6967   185.5998
      2  C    Isotropic =    67.5277   Anisotropy =   177.1074
   XX=   -11.0208   YX=   -39.0437   ZX=    -4.9670
   XY=   -39.0455   YY=    29.8509   ZY=    14.9722
   XZ=    -4.9785   YZ=    14.9681   ZZ=   183.7528
   Eigenvalues:   -34.7109    51.6946   185.5993
      3  C    Isotropic =    67.5331   Anisotropy =   177.1056
   XX=    51.9441   YX=     1.2185   ZX=    -6.3673
   XY=     1.2173   YY=   -32.1128   ZY=    23.5326
   XZ=    -6.3685   YZ=    23.5409   ZZ=   182.7679
   Eigenvalues:   -34.7023    51.6980   185.6034
      4  C    Isotropic =    67.5289   Anisotropy =   177.1063
   XX=   -14.2983   YX=    35.1876   ZX=   -13.1226
   XY=    35.1898   YY=    33.8390   ZY=    18.0083
   XZ=   -13.1179   YZ=    18.0039   ZZ=   183.0461
   Eigenvalues:   -34.7097    51.6967   185.5998
      5  C    Isotropic =    67.5277   Anisotropy =   177.1074
   XX=   -11.0208   YX=   -39.0437   ZX=    -4.9670
   XY=   -39.0455   YY=    29.8509   ZY=    14.9722
   XZ=    -4.9785   YZ=    14.9681   ZZ=   183.7528
   Eigenvalues:   -34.7109    51.6946   185.5993
      6  C    Isotropic =    67.5331   Anisotropy =   177.1056
   XX=    51.9441   YX=     1.2185   ZX=    -6.3673
   XY=     1.2173   YY=   -32.1128   ZY=    23.5326
   XZ=    -6.3685   YZ=    23.5409   ZZ=   182.7679
   Eigenvalues:   -34.7023    51.6980   185.6034
      7  H    Isotropic =    24.5758   Anisotropy =     4.8507
   XX=    25.1863   YX=     1.4434   ZX=     0.0159
   XY=     1.4426   YY=    26.9736   ZY=    -0.5208
   XZ=     0.0161   YZ=    -0.5223   ZZ=    21.5674
   Eigenvalues:    21.5104    24.4073    27.8095
      8  H    Isotropic =    24.5757   Anisotropy =     4.8511
   XX=    25.3152   YX=    -1.4804   ZX=     0.3371
   XY=    -1.4801   YY=    26.8165   ZY=    -0.6409
   XZ=     0.3369   YZ=    -0.6422   ZZ=    21.5953
   Eigenvalues:    21.5104    24.4069    27.8097
      9  H    Isotropic =    24.5764   Anisotropy =     4.8501
   XX=    27.7947   YX=     0.1052   ZX=     0.2821
   XY=     0.1056   YY=    24.3780   ZY=    -0.3048
   XZ=     0.2819   YZ=    -0.3027   ZZ=    21.5566
   Eigenvalues:    21.5107    24.4087    27.8099
     10  H    Isotropic =    24.5758   Anisotropy =     4.8507
   XX=    25.1863   YX=     1.4434   ZX=     0.0159
   XY=     1.4426   YY=    26.9736   ZY=    -0.5208
   XZ=     0.0161   YZ=    -0.5223   ZZ=    21.5674
   Eigenvalues:    21.5104    24.4073    27.8095
     11  H    Isotropic =    24.5757   Anisotropy =     4.8511
   XX=    25.3152   YX=    -1.4804   ZX=     0.3371
   XY=    -1.4801   YY=    26.8165   ZY=    -0.6409
   XZ=     0.3369   YZ=    -0.6422   ZZ=    21.5953
   Eigenvalues:    21.5104    24.4069    27.8097
     12  H    Isotropic =    24.5764   Anisotropy =     4.8501
   XX=    27.7947   YX=     0.1052   ZX=     0.2821
   XY=     0.1056   YY=    24.3780   ZY=    -0.3048
   XZ=     0.2819   YZ=    -0.3027   ZZ=    21.5566
   Eigenvalues:    21.5107    24.4087    27.8099
 End of Minotr F.D. properties file   721 does not exist.
 End of Minotr F.D. properties file   722 does not exist.
 End of Minotr F.D. properties file   788 does not exist.

 **********************************************************************

            Population analysis using the SCF Density.

 **********************************************************************

 Orbital symmetries:
       Occupied  (AG) (AU) (AU) (AG) (AG) (AU) (AG) (AU) (AU) (AG)
                 (AG) (AG) (AU) (AU) (AU) (AU) (AU) (AG) (AG) (AG)
                 (AG)
       Virtual   (AU) (AU) (AG) (AU) (AU) (AG) (AG) (AG) (AU) (AG)
                 (AG) (AU) (AU) (AG) (AU) (AU) (AU) (AG) (AU) (AU)
                 (AG) (AG) (AG) (AG) (AG) (AU) (AU) (AU) (AU) (AG)
                 (AG) (AG) (AG) (AG) (AU) (AG) (AU) (AU) (AU) (AG)
                 (AU) (AU) (AU) (AG) (AG) (AG) (AG) (AG) (AU) (AU)
                 (AU) (AG) (AU) (AG) (AG) (AU) (AU) (AU) (AU) (AG)
                 (AG) (AU) (AU) (AU) (AG) (AG) (AU) (AG) (AG) (AG)
                 (AU) (AU) (AU) (AG) (AG) (AG) (AG) (AU) (AU) (AG)
                 (AG) (AG) (AU) (AG) (AU) (AU) (AU) (AU) (AU) (AG)
                 (AG) (AG) (AU)
 The electronic state is 1-AG.
 Alpha  occ. eigenvalues --  -10.18666 -10.18647 -10.18647 -10.18602 -10.18602
 Alpha  occ. eigenvalues --  -10.18588  -0.85204  -0.74116  -0.74116  -0.59973
 Alpha  occ. eigenvalues --   -0.59973  -0.52691  -0.45696  -0.45189  -0.42434
 Alpha  occ. eigenvalues --   -0.42434  -0.37263  -0.34659  -0.34659  -0.25747
 Alpha  occ. eigenvalues --   -0.25747
 Alpha virt. eigenvalues --   -0.00580  -0.00580   0.05967   0.10069   0.10069
 Alpha virt. eigenvalues --    0.13966   0.13966   0.15530   0.16231   0.29371
 Alpha virt. eigenvalues --    0.29371   0.30677   0.30677   0.36411   0.40597
 Alpha virt. eigenvalues --    0.41789   0.41789   0.43949   0.46944   0.47471
 Alpha virt. eigenvalues --    0.50764   0.50764   0.53686   0.53687   0.55114
 Alpha virt. eigenvalues --    0.60305   0.60305   0.64175   0.64175   0.67531
 Alpha virt. eigenvalues --    0.67531   0.67620   0.73246   0.73247   0.74631
 Alpha virt. eigenvalues --    0.74632   0.77911   0.77912   0.84683   0.90351
 Alpha virt. eigenvalues --    1.02956   1.02957   1.15332   1.24733   1.24734
 Alpha virt. eigenvalues --    1.25211   1.27429   1.27429   1.31001   1.31001
 Alpha virt. eigenvalues --    1.52111   1.64826   1.65228   1.67432   1.75189
 Alpha virt. eigenvalues --    1.76116   1.76117   1.76308   1.76309   1.76808
 Alpha virt. eigenvalues --    1.76809   1.83328   1.83329   1.93487   1.99037
 Alpha virt. eigenvalues --    1.99037   1.99991   2.00333   2.00333   2.10687
 Alpha virt. eigenvalues --    2.15062   2.15063   2.16174   2.31336   2.31336
 Alpha virt. eigenvalues --    2.32960   2.32960   2.36468   2.36469   2.58522
 Alpha virt. eigenvalues --    2.62225   2.62225   2.67249   2.74308   2.74459
 Alpha virt. eigenvalues --    2.74460   2.89048   2.89048   2.91854   3.15733
 Alpha virt. eigenvalues --    3.15733   3.28359   3.71278
     Molecular Orbital Coefficients:
                           1         2         3         4         5
                           O         O         O         O         O
     Eigenvalues --   -10.18666 -10.18647 -10.18647 -10.18602 -10.18602
   1 1   C  1S          0.40390   0.54169   0.17998   0.53065  -0.20865
   2        2S          0.01603   0.02522   0.00838   0.02777  -0.01092
   3        3S         -0.00604  -0.00325  -0.00108  -0.02882   0.01133
   4        4PX        -0.00094  -0.00077   0.00067   0.00067   0.00098
   5        4PY         0.00051  -0.00024   0.00161   0.00064   0.00202
   6        4PZ        -0.00010  -0.00001  -0.00014  -0.00004  -0.00017
   7        5PX         0.00022  -0.00430   0.00304  -0.00450   0.00045
   8        5PY        -0.00012  -0.00083   0.00785   0.00137  -0.00294
   9        5PZ         0.00002  -0.00011  -0.00071  -0.00036   0.00034
  10        6D 0       -0.00023  -0.00059  -0.00021  -0.00180   0.00069
  11        6D+1        0.00011   0.00011   0.00002   0.00013  -0.00008
  12        6D-1       -0.00003  -0.00014   0.00007  -0.00029   0.00026
  13        6D+2        0.00041   0.00001   0.00082   0.00035   0.00091
  14        6D-2       -0.00063  -0.00054   0.00035   0.00028   0.00057
  15 2   C  1S          0.40368   0.11498   0.55894  -0.08463   0.56404
  16        2S          0.01602   0.00535   0.02602  -0.00443   0.02951
  17        3S         -0.00603  -0.00069  -0.00334   0.00459  -0.03063
  18        4PX        -0.00092   0.00083  -0.00069   0.00120   0.00044
  19        4PY        -0.00056  -0.00159   0.00001  -0.00205  -0.00015
  20        4PZ         0.00002   0.00021  -0.00003   0.00028   0.00004
  21        5PX         0.00022   0.00387  -0.00390  -0.00068  -0.00440
  22        5PY         0.00013  -0.00770  -0.00031   0.00253  -0.00224
  23        5PZ        -0.00000   0.00101  -0.00015  -0.00030   0.00004
  24        6D 0       -0.00024  -0.00013  -0.00062   0.00028  -0.00191
  25        6D+1       -0.00004   0.00009  -0.00000   0.00008   0.00017
  26        6D-1        0.00002   0.00005  -0.00009   0.00014  -0.00035
  27        6D+2        0.00034   0.00085   0.00006   0.00102   0.00015
  28        6D-2        0.00067  -0.00033   0.00052  -0.00052  -0.00010
  29 3   C  1S          0.40382  -0.42657   0.37921  -0.44616  -0.35515
  30        2S          0.01603  -0.01986   0.01765  -0.02334  -0.01858
  31        3S         -0.00604   0.00255  -0.00228   0.02423   0.01929
  32        4PX         0.00002   0.00121   0.00138  -0.00150   0.00189
  33        4PY        -0.00107   0.00047  -0.00035  -0.00028  -0.00014
  34        4PZ         0.00012   0.00001   0.00010  -0.00004   0.00010
  35        5PX        -0.00000   0.00580   0.00664   0.00151  -0.00207
  36        5PY         0.00025   0.00281  -0.00218   0.00391   0.00303
  37        5PZ        -0.00003  -0.00003   0.00054  -0.00035  -0.00042
  38        6D 0       -0.00023   0.00046  -0.00042   0.00152   0.00120
  39        6D+1       -0.00001  -0.00009  -0.00006  -0.00004  -0.00020
  40        6D-1       -0.00013   0.00015  -0.00009   0.00025   0.00026
  41        6D+2       -0.00075   0.00033  -0.00036  -0.00001  -0.00008
  42        6D-2       -0.00003   0.00063   0.00068  -0.00074   0.00089
  43 4   C  1S          0.40390  -0.54169  -0.17998   0.53065  -0.20865
  44        2S          0.01603  -0.02522  -0.00838   0.02777  -0.01092
  45        3S         -0.00604   0.00325   0.00108  -0.02882   0.01133
  46        4PX         0.00094  -0.00077   0.00067  -0.00067  -0.00098
  47        4PY        -0.00051  -0.00024   0.00161  -0.00064  -0.00202
  48        4PZ         0.00010  -0.00001  -0.00014   0.00004   0.00017
  49        5PX        -0.00022  -0.00430   0.00304   0.00450  -0.00045
  50        5PY         0.00012  -0.00083   0.00785  -0.00137   0.00294
  51        5PZ        -0.00002  -0.00011  -0.00071   0.00036  -0.00034
  52        6D 0       -0.00023   0.00059   0.00021  -0.00180   0.00069
  53        6D+1        0.00011  -0.00011  -0.00002   0.00013  -0.00008
  54        6D-1       -0.00003   0.00014  -0.00007  -0.00029   0.00026
  55        6D+2        0.00041  -0.00001  -0.00082   0.00035   0.00091
  56        6D-2       -0.00063   0.00054  -0.00035   0.00028   0.00057
  57 5   C  1S          0.40368  -0.11498  -0.55894  -0.08463   0.56404
  58        2S          0.01602  -0.00535  -0.02602  -0.00443   0.02951
  59        3S         -0.00603   0.00069   0.00334   0.00459  -0.03063
  60        4PX         0.00092   0.00083  -0.00069  -0.00120  -0.00044
  61        4PY         0.00056  -0.00159   0.00001   0.00205   0.00015
  62        4PZ        -0.00002   0.00021  -0.00003  -0.00028  -0.00004
  63        5PX        -0.00022   0.00387  -0.00390   0.00068   0.00440
  64        5PY        -0.00013  -0.00770  -0.00031  -0.00253   0.00224
  65        5PZ         0.00000   0.00101  -0.00015   0.00030  -0.00004
  66        6D 0       -0.00024   0.00013   0.00062   0.00028  -0.00191
  67        6D+1       -0.00004  -0.00009   0.00000   0.00008   0.00017
  68        6D-1        0.00002  -0.00005   0.00009   0.00014  -0.00035
  69        6D+2        0.00034  -0.00085  -0.00006   0.00102   0.00015
  70        6D-2        0.00067   0.00033  -0.00052  -0.00052  -0.00010
  71 6   C  1S          0.40382   0.42657  -0.37921  -0.44616  -0.35515
  72        2S          0.01603   0.01986  -0.01765  -0.02334  -0.01858
  73        3S         -0.00604  -0.00255   0.00228   0.02423   0.01929
  74        4PX        -0.00002   0.00121   0.00138   0.00150  -0.00189
  75        4PY         0.00107   0.00047  -0.00035   0.00028   0.00014
  76        4PZ        -0.00012   0.00001   0.00010   0.00004  -0.00010
  77        5PX         0.00000   0.00580   0.00664  -0.00151   0.00207
  78        5PY        -0.00025   0.00281  -0.00218  -0.00391  -0.00303
  79        5PZ         0.00003  -0.00003   0.00054   0.00035   0.00042
  80        6D 0       -0.00023  -0.00046   0.00042   0.00152   0.00120
  81        6D+1       -0.00001   0.00009   0.00006  -0.00004  -0.00020
  82        6D-1       -0.00013  -0.00015   0.00009   0.00025   0.00026
  83        6D+2       -0.00075  -0.00033   0.00036  -0.00001  -0.00008
  84        6D-2       -0.00003  -0.00063  -0.00068  -0.00074   0.00089
  85 7   H  1S         -0.00177  -0.00354  -0.00118  -0.00299   0.00118
  86        2S          0.00216   0.00134   0.00045   0.00394  -0.00155
  87        3PX        -0.00085  -0.00107  -0.00079  -0.00163   0.00051
  88        3PY         0.00046   0.00089  -0.00050   0.00077  -0.00055
  89        3PZ        -0.00009  -0.00015   0.00002  -0.00016   0.00008
  90 8   H  1S         -0.00177  -0.00075  -0.00365   0.00048  -0.00318
  91        2S          0.00216   0.00028   0.00138  -0.00063   0.00419
  92        3PX        -0.00082  -0.00068  -0.00112   0.00011  -0.00166
  93        3PY        -0.00050   0.00056  -0.00088   0.00037  -0.00097
  94        3PZ         0.00002  -0.00009   0.00004  -0.00003   0.00003
  95 9   H  1S         -0.00177   0.00279  -0.00248   0.00251   0.00200
  96        2S          0.00216  -0.00105   0.00094  -0.00331  -0.00264
  97        3PX         0.00002  -0.00059  -0.00062   0.00013  -0.00023
  98        3PY        -0.00096   0.00106  -0.00097   0.00152   0.00120
  99        3PZ         0.00010  -0.00014   0.00008  -0.00016  -0.00014
 100 10  H  1S         -0.00177   0.00354   0.00118  -0.00299   0.00118
 101        2S          0.00216  -0.00134  -0.00045   0.00394  -0.00155
 102        3PX         0.00085  -0.00107  -0.00079   0.00163  -0.00051
 103        3PY        -0.00046   0.00089  -0.00050  -0.00077   0.00055
 104        3PZ         0.00009  -0.00015   0.00002   0.00016  -0.00008
 105 11  H  1S         -0.00177   0.00075   0.00365   0.00048  -0.00318
 106        2S          0.00216  -0.00028  -0.00138  -0.00063   0.00419
 107        3PX         0.00082  -0.00068  -0.00112  -0.00011   0.00166
 108        3PY         0.00050   0.00056  -0.00088  -0.00037   0.00097
 109        3PZ        -0.00002  -0.00009   0.00004   0.00003  -0.00003
 110 12  H  1S         -0.00177  -0.00279   0.00248   0.00251   0.00200
 111        2S          0.00216   0.00105  -0.00094  -0.00331  -0.00264
 112        3PX        -0.00002  -0.00059  -0.00062  -0.00013   0.00023
 113        3PY         0.00096   0.00106  -0.00097  -0.00152  -0.00120
 114        3PZ        -0.00010  -0.00014   0.00008   0.00016   0.00014
                           6         7         8         9        10
                           O         O         O         O         O
     Eigenvalues --   -10.18588  -0.85204  -0.74116  -0.74116  -0.59973
   1 1   C  1S         -0.40286  -0.11994  -0.13668   0.09688   0.06100
   2        2S         -0.02309   0.22775   0.26816  -0.19007  -0.12489
   3        3S          0.02887   0.04824   0.06062  -0.04297  -0.03611
   4        4PX        -0.00066   0.05978  -0.01147  -0.06038   0.11542
   5        4PY         0.00036  -0.03233  -0.07010  -0.07499   0.14883
   6        4PZ        -0.00007   0.00628   0.00702   0.00527  -0.01066
   7        5PX         0.00184   0.01310  -0.00491  -0.01981   0.02412
   8        5PY        -0.00100  -0.00709  -0.02328  -0.02588   0.05066
   9        5PZ         0.00019   0.00138   0.00228   0.00187  -0.00434
  10        6D 0        0.00202  -0.00790  -0.00533   0.00394   0.00081
  11        6D+1       -0.00015   0.00039  -0.00002   0.00029  -0.00024
  12        6D-1        0.00038  -0.00153  -0.00191  -0.00033   0.00104
  13        6D+2        0.00007  -0.00112  -0.00849  -0.00626   0.00625
  14        6D-2       -0.00015   0.00191   0.00057  -0.00831   0.00423
  15 2   C  1S          0.40310  -0.11994  -0.15224  -0.06993   0.06947
  16        2S          0.02310   0.22775   0.29869   0.13720  -0.14223
  17        3S         -0.02887   0.04824   0.06752   0.03101  -0.04112
  18        4PX         0.00064   0.05828  -0.00253   0.06521   0.12126
  19        4PY         0.00039   0.03550   0.05495  -0.08326  -0.13364
  20        4PZ        -0.00001  -0.00111  -0.00604   0.01202   0.02007
  21        5PX        -0.00180   0.01278  -0.00196   0.02166   0.02470
  22        5PY        -0.00110   0.00778   0.01801  -0.02861  -0.04753
  23        5PZ         0.00003  -0.00024  -0.00203   0.00410   0.00628
  24        6D 0       -0.00201  -0.00787  -0.00593  -0.00276   0.00100
  25        6D+1        0.00018   0.00080   0.00046   0.00140   0.00059
  26        6D-1       -0.00039  -0.00168  -0.00201   0.00005   0.00071
  27        6D+2       -0.00006  -0.00093  -0.00695   0.00847   0.00633
  28        6D-2       -0.00013  -0.00188  -0.00268  -0.00723  -0.00350
  29 3   C  1S         -0.40294  -0.11994  -0.01556  -0.16681  -0.13046
  30        2S         -0.02310   0.22775   0.03052   0.32727   0.26712
  31        3S          0.02887   0.04824   0.00690   0.07398   0.07723
  32        4PX         0.00002  -0.00150  -0.11576   0.01015   0.00927
  33        4PY        -0.00075   0.06783  -0.00041   0.02917  -0.06271
  34        4PZ         0.00008  -0.00738  -0.00536  -0.00267   0.00719
  35        5PX        -0.00004  -0.00033  -0.03934   0.00348   0.00222
  36        5PY         0.00209   0.01487  -0.00027   0.00851   0.00703
  37        5PZ        -0.00023  -0.00162  -0.00181  -0.00076  -0.00065
  38        6D 0        0.00202  -0.00791  -0.00052  -0.00664  -0.00192
  39        6D+1       -0.00017   0.00073   0.00138   0.00067   0.00011
  40        6D-1        0.00036  -0.00125  -0.00054  -0.00052  -0.00039
  41        6D+2       -0.00018   0.00225   0.00116   0.00617  -0.00038
  42        6D-2       -0.00003   0.00018  -0.01181   0.00146   0.00032
  43 4   C  1S          0.40286  -0.11994   0.13668  -0.09688   0.06100
  44        2S          0.02309   0.22775  -0.26816   0.19007  -0.12489
  45        3S         -0.02887   0.04824  -0.06062   0.04297  -0.03611
  46        4PX        -0.00066  -0.05978  -0.01147  -0.06038  -0.11542
  47        4PY         0.00036   0.03233  -0.07010  -0.07499  -0.14883
  48        4PZ        -0.00007  -0.00628   0.00702   0.00527   0.01066
  49        5PX         0.00184  -0.01310  -0.00491  -0.01981  -0.02412
  50        5PY        -0.00100   0.00709  -0.02328  -0.02588  -0.05066
  51        5PZ         0.00019  -0.00138   0.00228   0.00187   0.00434
  52        6D 0       -0.00202  -0.00790   0.00533  -0.00394   0.00081
  53        6D+1        0.00015   0.00039   0.00002  -0.00029  -0.00024
  54        6D-1       -0.00038  -0.00153   0.00191   0.00033   0.00104
  55        6D+2       -0.00007  -0.00112   0.00849   0.00626   0.00625
  56        6D-2        0.00015   0.00191  -0.00057   0.00831   0.00423
  57 5   C  1S         -0.40310  -0.11994   0.15224   0.06993   0.06947
  58        2S         -0.02310   0.22775  -0.29869  -0.13720  -0.14223
  59        3S          0.02887   0.04824  -0.06752  -0.03101  -0.04112
  60        4PX         0.00064  -0.05828  -0.00253   0.06521  -0.12126
  61        4PY         0.00039  -0.03550   0.05495  -0.08326   0.13364
  62        4PZ        -0.00001   0.00111  -0.00604   0.01202  -0.02007
  63        5PX        -0.00180  -0.01278  -0.00196   0.02166  -0.02470
  64        5PY        -0.00110  -0.00778   0.01801  -0.02861   0.04753
  65        5PZ         0.00003   0.00024  -0.00203   0.00410  -0.00628
  66        6D 0        0.00201  -0.00787   0.00593   0.00276   0.00100
  67        6D+1       -0.00018   0.00080  -0.00046  -0.00140   0.00059
  68        6D-1        0.00039  -0.00168   0.00201  -0.00005   0.00071
  69        6D+2        0.00006  -0.00093   0.00695  -0.00847   0.00633
  70        6D-2        0.00013  -0.00188   0.00268   0.00723  -0.00350
  71 6   C  1S          0.40294  -0.11994   0.01556   0.16681  -0.13046
  72        2S          0.02310   0.22775  -0.03052  -0.32727   0.26712
  73        3S         -0.02887   0.04824  -0.00690  -0.07398   0.07723
  74        4PX         0.00002   0.00150  -0.11576   0.01015  -0.00927
  75        4PY        -0.00075  -0.06783  -0.00041   0.02917   0.06271
  76        4PZ         0.00008   0.00738  -0.00536  -0.00267  -0.00719
  77        5PX        -0.00004   0.00033  -0.03934   0.00348  -0.00222
  78        5PY         0.00209  -0.01487  -0.00027   0.00851  -0.00703
  79        5PZ        -0.00023   0.00162  -0.00181  -0.00076   0.00065
  80        6D 0       -0.00202  -0.00791   0.00052   0.00664  -0.00192
  81        6D+1        0.00017   0.00073  -0.00138  -0.00067   0.00011
  82        6D-1       -0.00036  -0.00125   0.00054   0.00052  -0.00039
  83        6D+2        0.00018   0.00225  -0.00116  -0.00617  -0.00038
  84        6D-2        0.00003   0.00018   0.01181  -0.00146   0.00032
  85 7   H  1S          0.00188   0.04380   0.08224  -0.05829  -0.07054
  86        2S         -0.00432   0.00869   0.01396  -0.00989  -0.02101
  87        3PX         0.00144   0.00670   0.00890  -0.00760  -0.00352
  88        3PY        -0.00078  -0.00363  -0.00626   0.00208   0.00628
  89        3PZ         0.00015   0.00070   0.00109  -0.00058  -0.00084
  90 8   H  1S         -0.00188   0.04380   0.09161   0.04208  -0.08033
  91        2S          0.00432   0.00869   0.01555   0.00714  -0.02392
  92        3PX        -0.00141   0.00654   0.00986   0.00578  -0.00405
  93        3PY        -0.00086   0.00398   0.00707   0.00120  -0.00677
  94        3PZ         0.00003  -0.00012  -0.00030   0.00014   0.00054
  95 9   H  1S          0.00188   0.04380   0.00936   0.10037   0.15087
  96        2S         -0.00432   0.00869   0.00159   0.01703   0.04493
  97        3PX        -0.00004  -0.00017  -0.00221  -0.00009  -0.00012
  98        3PY         0.00164   0.00761   0.00117   0.01318   0.01305
  99        3PZ        -0.00018  -0.00083  -0.00023  -0.00143  -0.00141
 100 10  H  1S         -0.00188   0.04380  -0.08224   0.05829  -0.07054
 101        2S          0.00432   0.00869  -0.01396   0.00989  -0.02101
 102        3PX         0.00144  -0.00670   0.00890  -0.00760   0.00352
 103        3PY        -0.00078   0.00363  -0.00626   0.00208  -0.00628
 104        3PZ         0.00015  -0.00070   0.00109  -0.00058   0.00084
 105 11  H  1S          0.00188   0.04380  -0.09161  -0.04208  -0.08033
 106        2S         -0.00432   0.00869  -0.01555  -0.00714  -0.02392
 107        3PX        -0.00141  -0.00654   0.00986   0.00578   0.00405
 108        3PY        -0.00086  -0.00398   0.00707   0.00120   0.00677
 109        3PZ         0.00003   0.00012  -0.00030   0.00014  -0.00054
 110 12  H  1S         -0.00188   0.04380  -0.00936  -0.10037   0.15087
 111        2S          0.00432   0.00869  -0.00159  -0.01703   0.04493
 112        3PX        -0.00004   0.00017  -0.00221  -0.00009   0.00012
 113        3PY         0.00164  -0.00761   0.00117   0.01318  -0.01305
 114        3PZ        -0.00018   0.00083  -0.00023  -0.00143   0.00141
                          11        12        13        14        15
                           O         O         O         O         O
     Eigenvalues --    -0.59973  -0.52691  -0.45696  -0.45189  -0.42434
   1 1   C  1S         -0.11543   0.01388  -0.07477   0.00001  -0.02487
   2        2S          0.23634  -0.02815   0.15524  -0.00001   0.06745
   3        3S          0.06833  -0.02930   0.39799  -0.00003   0.09151
   4        4PX        -0.00177   0.17213  -0.11531  -0.13470   0.19706
   5        4PY         0.11259  -0.09311   0.06235  -0.24513  -0.16260
   6        4PZ        -0.01223   0.01807  -0.01211   0.02015   0.02674
   7        5PX         0.01969   0.05737   0.10987  -0.04317   0.07902
   8        5PY         0.02301  -0.03103  -0.05944  -0.07854  -0.00436
   9        5PZ        -0.00156   0.00602   0.01154   0.00645   0.00416
  10        6D 0       -0.00174  -0.00021  -0.00053   0.00005   0.00050
  11        6D+1        0.00010   0.00072   0.00160   0.00009  -0.00025
  12        6D-1        0.00015   0.00007   0.00015  -0.00053  -0.00091
  13        6D+2        0.00355   0.00326   0.00727  -0.00384  -0.00848
  14        6D-2        0.00190  -0.00506  -0.01128  -0.00247  -0.00172
  15 2   C  1S          0.11054   0.01388   0.07477  -0.00001  -0.02756
  16        2S         -0.22633  -0.02815  -0.15524   0.00001   0.07473
  17        3S         -0.06544  -0.02930  -0.39798   0.00003   0.10139
  18        4PX        -0.01230   0.16782   0.11241  -0.14536   0.21969
  19        4PY         0.12290   0.10223   0.06850   0.23761   0.17598
  20        4PZ        -0.01383  -0.00319  -0.00214  -0.03241  -0.00871
  21        5PX        -0.02259   0.05594  -0.10713  -0.04657   0.08066
  22        5PY         0.02556   0.03407  -0.06525   0.07614   0.02025
  23        5PZ        -0.00381  -0.00106   0.00204  -0.01038   0.00159
  24        6D 0        0.00164  -0.00030   0.00072   0.00001   0.00052
  25        6D+1       -0.00052  -0.00043   0.00095  -0.00041  -0.00032
  26        6D-1       -0.00006   0.00050  -0.00110  -0.00034  -0.00067
  27        6D+2       -0.00420   0.00276  -0.00614  -0.00406  -0.00686
  28        6D-2        0.00178   0.00536  -0.01194   0.00209  -0.00040
  29 3   C  1S          0.00489   0.01388  -0.07477   0.00001  -0.00268
  30        2S         -0.01001  -0.02815   0.15524  -0.00001   0.00728
  31        3S         -0.00290  -0.02930   0.39799  -0.00003   0.00987
  32        4PX         0.21023  -0.00431   0.00291   0.28006  -0.08612
  33        4PY         0.00800   0.19533  -0.13085   0.00753   0.02474
  34        4PZ         0.00895  -0.02126   0.01424   0.01226  -0.00668
  35        5PX         0.06342  -0.00144  -0.00274   0.08974   0.05844
  36        5PY         0.00144   0.06510   0.12468   0.00240   0.00926
  37        5PZ         0.00280  -0.00709  -0.01357   0.00393   0.00173
  38        6D 0        0.00000  -0.00018  -0.00046  -0.00004   0.00016
  39        6D+1       -0.00094  -0.00023  -0.00051  -0.00050   0.00154
  40        6D-1        0.00036  -0.00070  -0.00158   0.00019  -0.00052
  41        6D+2       -0.00040  -0.00601  -0.01340  -0.00022   0.00102
  42        6D-2        0.00853  -0.00029  -0.00065   0.00456  -0.01394
  43 4   C  1S         -0.11543   0.01388   0.07477  -0.00001   0.02487
  44        2S          0.23634  -0.02815  -0.15524   0.00001  -0.06745
  45        3S          0.06833  -0.02930  -0.39799   0.00003  -0.09151
  46        4PX         0.00177  -0.17213  -0.11531  -0.13470   0.19706
  47        4PY        -0.11259   0.09311   0.06235  -0.24513  -0.16260
  48        4PZ         0.01223  -0.01807  -0.01211   0.02015   0.02674
  49        5PX        -0.01969  -0.05737   0.10987  -0.04317   0.07902
  50        5PY        -0.02301   0.03103  -0.05944  -0.07854  -0.00436
  51        5PZ         0.00156  -0.00602   0.01154   0.00645   0.00416
  52        6D 0       -0.00174  -0.00021   0.00053  -0.00005  -0.00050
  53        6D+1        0.00010   0.00072  -0.00160  -0.00009   0.00025
  54        6D-1        0.00015   0.00007  -0.00015   0.00053   0.00091
  55        6D+2        0.00355   0.00326  -0.00727   0.00384   0.00848
  56        6D-2        0.00190  -0.00506   0.01128   0.00247   0.00172
  57 5   C  1S          0.11054   0.01388  -0.07477   0.00001   0.02756
  58        2S         -0.22633  -0.02815   0.15524  -0.00001  -0.07473
  59        3S         -0.06544  -0.02930   0.39798  -0.00003  -0.10139
  60        4PX         0.01230  -0.16782   0.11241  -0.14536   0.21969
  61        4PY        -0.12290  -0.10223   0.06850   0.23761   0.17598
  62        4PZ         0.01383   0.00319  -0.00214  -0.03241  -0.00871
  63        5PX         0.02259  -0.05594  -0.10713  -0.04657   0.08066
  64        5PY        -0.02556  -0.03407  -0.06525   0.07614   0.02025
  65        5PZ         0.00381   0.00106   0.00204  -0.01038   0.00159
  66        6D 0        0.00164  -0.00030  -0.00072  -0.00001  -0.00052
  67        6D+1       -0.00052  -0.00043  -0.00095   0.00041   0.00032
  68        6D-1       -0.00006   0.00050   0.00110   0.00034   0.00067
  69        6D+2       -0.00420   0.00276   0.00614   0.00406   0.00686
  70        6D-2        0.00178   0.00536   0.01194  -0.00209   0.00040
  71 6   C  1S          0.00489   0.01388   0.07477  -0.00001   0.00268
  72        2S         -0.01001  -0.02815  -0.15524   0.00001  -0.00728
  73        3S         -0.00290  -0.02930  -0.39799   0.00003  -0.00987
  74        4PX        -0.21023   0.00431   0.00291   0.28006  -0.08612
  75        4PY        -0.00800  -0.19533  -0.13085   0.00753   0.02474
  76        4PZ        -0.00895   0.02126   0.01424   0.01226  -0.00668
  77        5PX        -0.06342   0.00144  -0.00274   0.08974   0.05844
  78        5PY        -0.00144  -0.06510   0.12468   0.00240   0.00926
  79        5PZ        -0.00280   0.00709  -0.01357   0.00393   0.00173
  80        6D 0        0.00000  -0.00018   0.00046   0.00004  -0.00016
  81        6D+1       -0.00094  -0.00023   0.00051   0.00050  -0.00154
  82        6D-1        0.00036  -0.00070   0.00158  -0.00019   0.00052
  83        6D+2       -0.00040  -0.00601   0.01340   0.00022  -0.00102
  84        6D-2        0.00853  -0.00029   0.00065  -0.00456   0.01394
  85 7   H  1S          0.13349  -0.14046   0.19736  -0.00001  -0.18248
  86        2S          0.03975  -0.03014   0.09306  -0.00001  -0.08764
  87        3PX         0.01115  -0.00705   0.00822  -0.00324  -0.00689
  88        3PY        -0.00372   0.00381  -0.00445  -0.00589   0.00190
  89        3PZ         0.00092  -0.00074   0.00086   0.00048  -0.00053
  90 8   H  1S         -0.12783  -0.14046  -0.19737   0.00002  -0.20216
  91        2S         -0.03807  -0.03014  -0.09307   0.00001  -0.09709
  92        3PX        -0.01070  -0.00688  -0.00801  -0.00349  -0.00722
  93        3PY        -0.00382  -0.00419  -0.00488   0.00571  -0.00302
  94        3PZ        -0.00009   0.00013   0.00015  -0.00078  -0.00001
  95 9   H  1S         -0.00566  -0.14046   0.19737  -0.00002  -0.01969
  96        2S         -0.00168  -0.03014   0.09306  -0.00001  -0.00945
  97        3PX         0.00436   0.00018  -0.00021   0.00673  -0.00277
  98        3PY        -0.00037  -0.00800   0.00933   0.00018  -0.00082
  99        3PZ         0.00024   0.00087  -0.00101   0.00029  -0.00004
 100 10  H  1S          0.13349  -0.14046  -0.19736   0.00001   0.18248
 101        2S          0.03975  -0.03014  -0.09306   0.00001   0.08764
 102        3PX        -0.01115   0.00705   0.00822  -0.00324  -0.00689
 103        3PY         0.00372  -0.00381  -0.00445  -0.00589   0.00190
 104        3PZ        -0.00092   0.00074   0.00086   0.00048  -0.00053
 105 11  H  1S         -0.12783  -0.14046   0.19737  -0.00002   0.20216
 106        2S         -0.03807  -0.03014   0.09307  -0.00001   0.09709
 107        3PX         0.01070   0.00688  -0.00801  -0.00349  -0.00722
 108        3PY         0.00382   0.00419  -0.00488   0.00571  -0.00302
 109        3PZ         0.00009  -0.00013   0.00015  -0.00078  -0.00001
 110 12  H  1S         -0.00566  -0.14046  -0.19737   0.00002   0.01969
 111        2S         -0.00168  -0.03014  -0.09306   0.00001   0.00945
 112        3PX        -0.00436  -0.00018  -0.00021   0.00673  -0.00277
 113        3PY         0.00037   0.00800   0.00933   0.00018  -0.00082
 114        3PZ        -0.00024  -0.00087  -0.00101   0.00029  -0.00004
                          16        17        18        19        20
                           O         O         O         O         O
     Eigenvalues --    -0.42434  -0.37263  -0.34659  -0.34659  -0.25747
   1 1   C  1S          0.01746   0.00000  -0.00200   0.00473  -0.00000
   2        2S         -0.04735  -0.00000   0.00858  -0.02027   0.00000
   3        3S         -0.06424  -0.00000  -0.02459   0.05812   0.00000
   4        4PX        -0.18877  -0.01058   0.19669  -0.13258  -0.01347
   5        4PY         0.02231   0.02443   0.17510   0.19082   0.03113
   6        4PZ        -0.01121   0.22644  -0.00971  -0.02677   0.28865
   7        5PX        -0.02089  -0.00562   0.04886   0.00958  -0.00928
   8        5PY         0.06598   0.01297   0.07952   0.03965   0.02144
   9        5PZ        -0.00809   0.12028  -0.00630  -0.00383   0.19874
  10        6D 0       -0.00015   0.00178   0.00022  -0.00087   0.00235
  11        6D+1        0.00050   0.00972  -0.00116   0.00218   0.00017
  12        6D-1       -0.00133  -0.00517   0.00115   0.00072  -0.01235
  13        6D+2       -0.00845   0.00011   0.00463   0.01406   0.00134
  14        6D-2       -0.00808   0.00130   0.01251  -0.01346   0.00061
  15 2   C  1S         -0.01281   0.00000   0.00509  -0.00063  -0.00000
  16        2S          0.03474  -0.00000  -0.02185   0.00271   0.00000
  17        3S          0.04714  -0.00001   0.06263  -0.00776   0.00001
  18        4PX         0.15129  -0.01058  -0.17512   0.16249  -0.01444
  19        4PY         0.00147   0.02441  -0.14523  -0.21214   0.03335
  20        4PZ         0.00690   0.22644   0.00748   0.03046   0.30931
  21        5PX         0.00383  -0.00562  -0.00341   0.05341  -0.00994
  22        5PY         0.06446   0.01297  -0.01659  -0.08456   0.02296
  23        5PZ        -0.00677   0.12028   0.00163   0.01161   0.21297
  24        6D 0        0.00019  -0.00031  -0.00118   0.00011  -0.00196
  25        6D+1        0.00126   0.00953  -0.00131   0.00122   0.00118
  26        6D-1        0.00084   0.00578   0.00177   0.00065   0.01086
  27        6D+2        0.01057  -0.00107   0.01060   0.00908  -0.00124
  28        6D-2       -0.00726   0.00076   0.01750  -0.00751  -0.00039
  29 3   C  1S         -0.03027  -0.00000  -0.00309  -0.00409   0.00000
  30        2S          0.08209   0.00000   0.01327   0.01757  -0.00000
  31        3S          0.11138  -0.00001  -0.03804  -0.05036   0.00000
  32        4PX         0.00085  -0.01056   0.21180  -0.16622  -0.00096
  33        4PY         0.30511   0.02441   0.14170   0.17561   0.00223
  34        4PZ        -0.03286   0.22644  -0.00540  -0.02669   0.02066
  35        5PX        -0.00711  -0.00562   0.08069  -0.06127  -0.00066
  36        5PY         0.08653   0.01296   0.00915   0.00761   0.00154
  37        5PZ        -0.00966   0.12028   0.00277  -0.00368   0.01423
  38        6D 0        0.00046  -0.00209   0.00039   0.00067  -0.00158
  39        6D+1       -0.00002  -0.00019  -0.00055   0.00139  -0.01970
  40        6D-1        0.00056   0.01096   0.00184   0.00165  -0.00018
  41        6D+2        0.00376  -0.00118   0.01192   0.01672   0.00093
  42        6D-2        0.00142  -0.00054   0.00984  -0.00619  -0.00213
  43 4   C  1S         -0.01746  -0.00000  -0.00200   0.00473  -0.00000
  44        2S          0.04735   0.00000   0.00858  -0.02027   0.00000
  45        3S          0.06424   0.00000  -0.02459   0.05812   0.00000
  46        4PX        -0.18877  -0.01058  -0.19669   0.13258   0.01347
  47        4PY         0.02231   0.02443  -0.17510  -0.19082  -0.03113
  48        4PZ        -0.01121   0.22644   0.00971   0.02677  -0.28865
  49        5PX        -0.02089  -0.00562  -0.04886  -0.00958   0.00928
  50        5PY         0.06598   0.01297  -0.07952  -0.03965  -0.02144
  51        5PZ        -0.00809   0.12028   0.00630   0.00383  -0.19874
  52        6D 0        0.00015  -0.00178   0.00022  -0.00087   0.00235
  53        6D+1       -0.00050  -0.00972  -0.00116   0.00218   0.00017
  54        6D-1        0.00133   0.00517   0.00115   0.00072  -0.01235
  55        6D+2        0.00845  -0.00011   0.00463   0.01406   0.00134
  56        6D-2        0.00808  -0.00130   0.01251  -0.01346   0.00061
  57 5   C  1S          0.01281  -0.00000   0.00509  -0.00063  -0.00000
  58        2S         -0.03474   0.00000  -0.02185   0.00271   0.00000
  59        3S         -0.04714   0.00001   0.06263  -0.00776   0.00001
  60        4PX         0.15129  -0.01058   0.17512  -0.16249   0.01444
  61        4PY         0.00147   0.02441   0.14523   0.21214  -0.03335
  62        4PZ         0.00690   0.22644  -0.00748  -0.03046  -0.30931
  63        5PX         0.00383  -0.00562   0.00341  -0.05341   0.00994
  64        5PY         0.06446   0.01297   0.01659   0.08456  -0.02296
  65        5PZ        -0.00677   0.12028  -0.00163  -0.01161  -0.21297
  66        6D 0       -0.00019   0.00031  -0.00118   0.00011  -0.00196
  67        6D+1       -0.00126  -0.00953  -0.00131   0.00122   0.00118
  68        6D-1       -0.00084  -0.00578   0.00177   0.00065   0.01086
  69        6D+2       -0.01057   0.00107   0.01060   0.00908  -0.00124
  70        6D-2        0.00726  -0.00076   0.01750  -0.00751  -0.00039
  71 6   C  1S          0.03027   0.00000  -0.00309  -0.00409   0.00000
  72        2S         -0.08209  -0.00000   0.01327   0.01757  -0.00000
  73        3S         -0.11138   0.00001  -0.03804  -0.05036   0.00000
  74        4PX         0.00085  -0.01056  -0.21180   0.16622   0.00096
  75        4PY         0.30511   0.02441  -0.14170  -0.17561  -0.00223
  76        4PZ        -0.03286   0.22644   0.00540   0.02669  -0.02066
  77        5PX        -0.00711  -0.00562  -0.08069   0.06127   0.00066
  78        5PY         0.08653   0.01296  -0.00915  -0.00761  -0.00154
  79        5PZ        -0.00966   0.12028  -0.00277   0.00368  -0.01423
  80        6D 0       -0.00046   0.00209   0.00039   0.00067  -0.00158
  81        6D+1        0.00002   0.00019  -0.00055   0.00139  -0.01970
  82        6D-1       -0.00056  -0.01096   0.00184   0.00165  -0.00018
  83        6D+2       -0.00376   0.00118   0.01192   0.01672   0.00093
  84        6D-2       -0.00142   0.00054   0.00984  -0.00619  -0.00213
  85 7   H  1S          0.12809   0.00001  -0.09224   0.21799  -0.00000
  86        2S          0.06152   0.00001  -0.05716   0.13510  -0.00000
  87        3PX         0.00319  -0.00027   0.00030   0.00643  -0.00044
  88        3PY        -0.00433   0.00063   0.00589  -0.00092   0.00102
  89        3PZ         0.00062   0.00584  -0.00062   0.00040   0.00946
  90 8   H  1S         -0.09399   0.00001   0.23491  -0.02912   0.00000
  91        2S         -0.04514   0.00001   0.14558  -0.01805   0.00000
  92        3PX        -0.00175  -0.00027   0.00599   0.00229  -0.00047
  93        3PY        -0.00403   0.00063   0.00282  -0.00530   0.00109
  94        3PZ         0.00035   0.00584  -0.00002   0.00068   0.01013
  95 9   H  1S         -0.22207   0.00000  -0.14267  -0.18888  -0.00001
  96        2S         -0.10666   0.00000  -0.08842  -0.11706  -0.00000
  97        3PX         0.00043  -0.00027   0.00471  -0.00337  -0.00003
  98        3PY        -0.00844   0.00063  -0.00385  -0.00535   0.00007
  99        3PZ         0.00093   0.00584   0.00063   0.00042   0.00068
 100 10  H  1S         -0.12809  -0.00001  -0.09224   0.21799  -0.00000
 101        2S         -0.06152  -0.00001  -0.05716   0.13510  -0.00000
 102        3PX         0.00319  -0.00027  -0.00030  -0.00643   0.00044
 103        3PY        -0.00433   0.00063  -0.00589   0.00092  -0.00102
 104        3PZ         0.00062   0.00584   0.00062  -0.00040  -0.00946
 105 11  H  1S          0.09399  -0.00001   0.23491  -0.02912   0.00000
 106        2S          0.04514  -0.00001   0.14558  -0.01805   0.00000
 107        3PX        -0.00175  -0.00027  -0.00599  -0.00229   0.00047
 108        3PY        -0.00403   0.00063  -0.00282   0.00530  -0.00109
 109        3PZ         0.00035   0.00584   0.00002  -0.00068  -0.01013
 110 12  H  1S          0.22207  -0.00000  -0.14267  -0.18888  -0.00001
 111        2S          0.10666  -0.00000  -0.08842  -0.11706  -0.00000
 112        3PX         0.00043  -0.00027  -0.00471   0.00337   0.00003
 113        3PY        -0.00844   0.00063   0.00385   0.00535  -0.00007
 114        3PZ         0.00093   0.00584  -0.00063  -0.00042  -0.00068
                          21        22        23        24        25
                           O         V         V         V         V
     Eigenvalues --    -0.25747  -0.00580  -0.00580   0.05967   0.10069
   1 1   C  1S          0.00000  -0.00000  -0.00000   0.04261   0.03654
   2        2S          0.00000   0.00000   0.00001  -0.09583  -0.08615
   3        3S         -0.00000  -0.00001  -0.00002  -0.53055  -0.85916
   4        4PX         0.00890   0.00775  -0.01532   0.09720   0.16800
   5        4PY        -0.02055  -0.01790   0.03541  -0.05257  -0.08206
   6        4PZ        -0.19051  -0.16599   0.32831   0.01021   0.01669
   7        5PX         0.00612   0.01072  -0.02122   0.24144   0.42529
   8        5PY        -0.01415  -0.02477   0.04901  -0.13059  -0.29038
   9        5PZ        -0.13117  -0.22973   0.45438   0.02536   0.05117
  10        6D 0        0.00140  -0.00285  -0.00296  -0.00264   0.00106
  11        6D+1       -0.01159   0.01682   0.00016   0.00218   0.00082
  12        6D-1       -0.01240   0.02232   0.01572  -0.00018   0.00003
  13        6D+2        0.00189  -0.00321  -0.00172   0.00918   0.00178
  14        6D-2       -0.00066   0.00076  -0.00073  -0.01418  -0.00760
  15 2   C  1S         -0.00000   0.00000   0.00000   0.04261   0.03294
  16        2S          0.00000  -0.00000  -0.00001  -0.09583  -0.07767
  17        3S          0.00000   0.00000   0.00001  -0.53055  -0.77460
  18        4PX        -0.00723   0.00940   0.01437   0.09476   0.14990
  19        4PY         0.01669  -0.02171  -0.03320   0.05772   0.07894
  20        4PZ         0.15472  -0.20133  -0.30791  -0.00180  -0.00151
  21        5PX        -0.00498   0.01301   0.01991   0.23539   0.35856
  22        5PY         0.01149  -0.03004  -0.04594   0.14339   0.30307
  23        5PZ         0.10653  -0.27864  -0.42614  -0.00447  -0.01593
  24        6D 0        0.00345   0.00509  -0.00362  -0.00288   0.00084
  25        6D+1        0.01194   0.01738  -0.00264  -0.00104  -0.00089
  26        6D-1       -0.01305  -0.01936   0.01795   0.00102   0.00050
  27        6D+2        0.00087   0.00130  -0.00183   0.00775  -0.00015
  28        6D-2        0.00192   0.00281  -0.00114   0.01505   0.00751
  29 3   C  1S         -0.00000  -0.00000  -0.00000   0.04261  -0.00360
  30        2S          0.00000   0.00000   0.00000  -0.09582   0.00848
  31        3S          0.00000  -0.00000  -0.00003  -0.53055   0.08457
  32        4PX        -0.01610  -0.01714   0.00095  -0.00243   0.01879
  33        4PY         0.03722   0.03961  -0.00220   0.11030  -0.01785
  34        4PZ         0.34523   0.36732  -0.02040  -0.01200   0.00280
  35        5PX        -0.01109  -0.02372   0.00132  -0.00604  -0.12473
  36        5PY         0.02563   0.05481  -0.00306   0.27397  -0.05373
  37        5PZ         0.23770   0.50837  -0.02824  -0.02982  -0.00004
  38        6D 0       -0.00131   0.00173   0.00227  -0.00254  -0.00005
  39        6D+1        0.00105   0.00187   0.03102  -0.00048   0.00072
  40        6D-1        0.00737  -0.00832   0.00145  -0.00235  -0.00019
  41        6D+2       -0.00085   0.00082  -0.00159  -0.01686   0.00102
  42        6D-2       -0.00024   0.00060   0.00329  -0.00080  -0.00612
  43 4   C  1S          0.00000   0.00000   0.00000   0.04261  -0.03654
  44        2S          0.00000  -0.00000  -0.00001  -0.09583   0.08615
  45        3S         -0.00000   0.00001   0.00002  -0.53055   0.85916
  46        4PX        -0.00890   0.00775  -0.01532  -0.09720   0.16800
  47        4PY         0.02055  -0.01790   0.03541   0.05257  -0.08206
  48        4PZ         0.19051  -0.16599   0.32831  -0.01021   0.01669
  49        5PX        -0.00612   0.01072  -0.02122  -0.24144   0.42529
  50        5PY         0.01415  -0.02477   0.04901   0.13059  -0.29038
  51        5PZ         0.13117  -0.22973   0.45438  -0.02536   0.05117
  52        6D 0        0.00140   0.00285   0.00296  -0.00264  -0.00106
  53        6D+1       -0.01159  -0.01682  -0.00016   0.00218  -0.00082
  54        6D-1       -0.01240  -0.02232  -0.01572  -0.00018  -0.00003
  55        6D+2        0.00189   0.00321   0.00172   0.00918  -0.00178
  56        6D-2       -0.00066  -0.00076   0.00073  -0.01418   0.00760
  57 5   C  1S         -0.00000  -0.00000  -0.00000   0.04261  -0.03294
  58        2S          0.00000   0.00000   0.00001  -0.09583   0.07767
  59        3S          0.00000  -0.00000  -0.00001  -0.53055   0.77460
  60        4PX         0.00723   0.00940   0.01437  -0.09476   0.14990
  61        4PY        -0.01669  -0.02171  -0.03320  -0.05772   0.07894
  62        4PZ        -0.15472  -0.20133  -0.30791   0.00180  -0.00151
  63        5PX         0.00498   0.01301   0.01991  -0.23539   0.35856
  64        5PY        -0.01149  -0.03004  -0.04594  -0.14339   0.30307
  65        5PZ        -0.10653  -0.27864  -0.42614   0.00447  -0.01593
  66        6D 0        0.00345  -0.00509   0.00362  -0.00288  -0.00084
  67        6D+1        0.01194  -0.01738   0.00264  -0.00104   0.00089
  68        6D-1       -0.01305   0.01936  -0.01795   0.00102  -0.00050
  69        6D+2        0.00087  -0.00130   0.00183   0.00775   0.00015
  70        6D-2        0.00192  -0.00281   0.00114   0.01505  -0.00751
  71 6   C  1S         -0.00000   0.00000   0.00000   0.04261   0.00360
  72        2S          0.00000  -0.00000  -0.00000  -0.09582  -0.00848
  73        3S          0.00000   0.00000   0.00003  -0.53055  -0.08457
  74        4PX         0.01610  -0.01714   0.00095   0.00243   0.01879
  75        4PY        -0.03722   0.03961  -0.00220  -0.11030  -0.01785
  76        4PZ        -0.34523   0.36732  -0.02040   0.01200   0.00280
  77        5PX         0.01109  -0.02372   0.00132   0.00604  -0.12473
  78        5PY        -0.02563   0.05481  -0.00306  -0.27397  -0.05373
  79        5PZ        -0.23770   0.50837  -0.02824   0.02982  -0.00004
  80        6D 0       -0.00131  -0.00173  -0.00227  -0.00254   0.00005
  81        6D+1        0.00105  -0.00187  -0.03102  -0.00048  -0.00072
  82        6D-1        0.00737   0.00832  -0.00145  -0.00235   0.00019
  83        6D+2       -0.00085  -0.00082   0.00159  -0.01686  -0.00102
  84        6D-2       -0.00024  -0.00060  -0.00329  -0.00080   0.00612
  85 7   H  1S         -0.00001   0.00000  -0.00000   0.06733   0.03437
  86        2S         -0.00000   0.00000  -0.00001   0.77052   1.17998
  87        3PX         0.00029   0.00038  -0.00075  -0.00496  -0.00278
  88        3PY        -0.00067  -0.00087   0.00173   0.00268   0.00144
  89        3PZ        -0.00624  -0.00811   0.01604  -0.00052  -0.00029
  90 8   H  1S          0.00000   0.00000   0.00001   0.06733   0.03099
  91        2S          0.00000   0.00001   0.00001   0.77052   1.06383
  92        3PX        -0.00024   0.00046   0.00070  -0.00484  -0.00246
  93        3PY         0.00055  -0.00106  -0.00162  -0.00295  -0.00141
  94        3PZ         0.00507  -0.00983  -0.01504   0.00009   0.00004
  95 9   H  1S          0.00000  -0.00000   0.00000   0.06733  -0.00338
  96        2S          0.00000  -0.00000  -0.00000   0.77051  -0.11614
  97        3PX        -0.00053  -0.00084   0.00005   0.00012  -0.00014
  98        3PY         0.00122   0.00193  -0.00011  -0.00563   0.00030
  99        3PZ         0.01131   0.01794  -0.00100   0.00061  -0.00004
 100 10  H  1S         -0.00001  -0.00000   0.00000   0.06733  -0.03437
 101        2S         -0.00000  -0.00000   0.00001   0.77052  -1.17998
 102        3PX        -0.00029   0.00038  -0.00075   0.00496  -0.00278
 103        3PY         0.00067  -0.00087   0.00173  -0.00268   0.00144
 104        3PZ         0.00624  -0.00811   0.01604   0.00052  -0.00029
 105 11  H  1S          0.00000  -0.00000  -0.00001   0.06733  -0.03099
 106        2S          0.00000  -0.00001  -0.00001   0.77052  -1.06383
 107        3PX         0.00024   0.00046   0.00070   0.00484  -0.00246
 108        3PY        -0.00055  -0.00106  -0.00162   0.00295  -0.00141
 109        3PZ        -0.00507  -0.00983  -0.01504  -0.00009   0.00004
 110 12  H  1S          0.00000   0.00000  -0.00000   0.06733   0.00338
 111        2S          0.00000   0.00000   0.00000   0.77051   0.11614
 112        3PX         0.00053  -0.00084   0.00005  -0.00012  -0.00014
 113        3PY        -0.00122   0.00193  -0.00011   0.00563   0.00030
 114        3PZ        -0.01131   0.01794  -0.00100  -0.00061  -0.00004
                          26        27        28        29        30
                           V         V         V         V         V
     Eigenvalues --     0.10069   0.13966   0.13966   0.15530   0.16231
   1 1   C  1S         -0.01694   0.07220  -0.03691   0.00000  -0.06175
   2        2S          0.03995  -0.16444   0.08406  -0.00001   0.13974
   3        3S          0.39839  -1.34346   0.68679  -0.00007  -0.31942
   4        4PX        -0.06812   0.08388  -0.07037  -0.01358  -0.06787
   5        4PY         0.05585  -0.07167  -0.01338   0.03138   0.03671
   6        4PZ        -0.00920   0.01164  -0.00182   0.29098  -0.00713
   7        5PX        -0.26420   0.45748  -0.40672  -0.02794  -0.94248
   8        5PY         0.01274  -0.41281  -0.10351   0.06464   0.50978
   9        5PZ        -0.01372   0.06587  -0.00780   0.59932  -0.09897
  10        6D 0       -0.00041  -0.00204   0.00092  -0.00237   0.00685
  11        6D+1       -0.00025  -0.00096   0.00030  -0.01296   0.00016
  12        6D-1       -0.00080  -0.00006   0.00121   0.00690   0.00140
  13        6D+2       -0.00656  -0.00135   0.00931  -0.00015   0.00329
  14        6D-2       -0.00018   0.00981   0.00054  -0.00173  -0.00525
  15 2   C  1S          0.02317  -0.00414   0.08098  -0.00000   0.06175
  16        2S         -0.05464   0.00942  -0.18444   0.00001  -0.13974
  17        3S         -0.54486   0.07695  -1.50688   0.00010   0.31938
  18        4PX         0.09373  -0.03169   0.10257   0.01358   0.06617
  19        4PY         0.07467   0.03989   0.06550  -0.03138   0.04031
  20        4PZ        -0.00367  -0.00578  -0.00229  -0.29098  -0.00125
  21        5PX         0.33240  -0.19532   0.56841   0.02794   0.91889
  22        5PY         0.08212   0.25319   0.36524  -0.06464   0.55973
  23        5PZ         0.00667  -0.03641  -0.01286  -0.59932  -0.01745
  24        6D 0        0.00057   0.00008  -0.00209  -0.00042  -0.00676
  25        6D+1        0.00006   0.00078   0.00097   0.01271   0.00101
  26        6D-1        0.00092   0.00075  -0.00129   0.00771  -0.00184
  27        6D+2        0.00663   0.00834  -0.00417  -0.00143  -0.00276
  28        6D-2        0.00182  -0.00371  -0.00915   0.00101  -0.00543
  29 3   C  1S          0.04011  -0.06807  -0.04407   0.00000  -0.06175
  30        2S         -0.09458   0.15502   0.10038  -0.00000   0.13974
  31        3S         -0.94326   1.26652   0.82009  -0.00003  -0.31938
  32        4PX        -0.00287   0.02990  -0.04126  -0.01358   0.00170
  33        4PY         0.20469  -0.10091  -0.06697   0.03138  -0.07702
  34        4PZ        -0.02220   0.01227   0.00531   0.29098   0.00838
  35        5PX        -0.02367   0.18635  -0.26052  -0.02794   0.02359
  36        5PY         0.56138  -0.55967  -0.37261   0.06464  -1.06951
  37        5PZ        -0.06163   0.06904   0.02804   0.59932   0.11642
  38        6D 0        0.00118   0.00196   0.00118   0.00279   0.00689
  39        6D+1       -0.00036   0.00004  -0.00117   0.00025  -0.00081
  40        6D-1       -0.00070  -0.00078  -0.00006  -0.01461   0.00061
  41        6D+2       -0.00804  -0.00822  -0.00586   0.00158  -0.00622
  42        6D-2       -0.00096  -0.00539   0.00737   0.00072  -0.00036
  43 4   C  1S          0.01694   0.07220  -0.03691   0.00000   0.06175
  44        2S         -0.03995  -0.16444   0.08406  -0.00001  -0.13974
  45        3S         -0.39839  -1.34346   0.68679  -0.00007   0.31942
  46        4PX        -0.06812  -0.08388   0.07037   0.01358  -0.06787
  47        4PY         0.05585   0.07167   0.01338  -0.03138   0.03671
  48        4PZ        -0.00920  -0.01164   0.00182  -0.29098  -0.00713
  49        5PX        -0.26420  -0.45748   0.40672   0.02794  -0.94248
  50        5PY         0.01274   0.41281   0.10351  -0.06464   0.50978
  51        5PZ        -0.01372  -0.06587   0.00780  -0.59932  -0.09897
  52        6D 0        0.00041  -0.00204   0.00092  -0.00237  -0.00685
  53        6D+1        0.00025  -0.00096   0.00030  -0.01296  -0.00016
  54        6D-1        0.00080  -0.00006   0.00121   0.00690  -0.00140
  55        6D+2        0.00656  -0.00135   0.00931  -0.00015  -0.00329
  56        6D-2        0.00018   0.00981   0.00054  -0.00173   0.00525
  57 5   C  1S         -0.02317  -0.00414   0.08098  -0.00000  -0.06175
  58        2S          0.05464   0.00942  -0.18444   0.00001   0.13974
  59        3S          0.54486   0.07695  -1.50688   0.00010  -0.31938
  60        4PX         0.09373   0.03169  -0.10257  -0.01358   0.06617
  61        4PY         0.07467  -0.03989  -0.06550   0.03138   0.04031
  62        4PZ        -0.00367   0.00578   0.00229   0.29098  -0.00125
  63        5PX         0.33240   0.19532  -0.56841  -0.02794   0.91889
  64        5PY         0.08212  -0.25319  -0.36524   0.06464   0.55973
  65        5PZ         0.00667   0.03641   0.01286   0.59932  -0.01745
  66        6D 0       -0.00057   0.00008  -0.00209  -0.00042   0.00676
  67        6D+1       -0.00006   0.00078   0.00097   0.01271  -0.00101
  68        6D-1       -0.00092   0.00075  -0.00129   0.00771   0.00184
  69        6D+2       -0.00663   0.00834  -0.00417  -0.00143   0.00276
  70        6D-2       -0.00182  -0.00371  -0.00915   0.00101   0.00543
  71 6   C  1S         -0.04011  -0.06807  -0.04407   0.00000   0.06175
  72        2S          0.09458   0.15502   0.10038  -0.00000  -0.13974
  73        3S          0.94326   1.26652   0.82009  -0.00003   0.31938
  74        4PX        -0.00287  -0.02990   0.04126   0.01358   0.00170
  75        4PY         0.20469   0.10091   0.06697  -0.03138  -0.07702
  76        4PZ        -0.02220  -0.01227  -0.00531  -0.29098   0.00838
  77        5PX        -0.02367  -0.18635   0.26052   0.02794   0.02359
  78        5PY         0.56138   0.55967   0.37261  -0.06464  -1.06951
  79        5PZ        -0.06163  -0.06904  -0.02804  -0.59932   0.11642
  80        6D 0       -0.00118   0.00196   0.00118   0.00279  -0.00689
  81        6D+1        0.00036   0.00004  -0.00117   0.00025   0.00081
  82        6D-1        0.00070  -0.00078  -0.00006  -0.01461  -0.00061
  83        6D+2        0.00804  -0.00822  -0.00586   0.00158   0.00622
  84        6D-2        0.00096  -0.00539   0.00737   0.00072   0.00036
  85 7   H  1S         -0.01594   0.01067  -0.00546  -0.00001  -0.05716
  86        2S         -0.54715   1.35384  -0.69210   0.00006  -1.21717
  87        3PX         0.00122  -0.00354  -0.00388  -0.00096   0.00473
  88        3PY        -0.00080  -0.00353  -0.00855   0.00222  -0.00256
  89        3PZ         0.00014   0.00022   0.00074   0.02056   0.00050
  90 8   H  1S          0.02180  -0.00061   0.01197   0.00001   0.05716
  91        2S          0.74832  -0.07755   1.51852  -0.00009   1.21719
  92        3PX        -0.00165  -0.00539  -0.00163   0.00096  -0.00461
  93        3PY        -0.00113   0.00897  -0.00037  -0.00222  -0.00281
  94        3PZ         0.00004  -0.00122  -0.00004  -0.02056   0.00009
  95 9   H  1S          0.03774  -0.01006  -0.00652  -0.00000  -0.05716
  96        2S          1.29547  -1.27631  -0.82642   0.00003  -1.21719
  97        3PX         0.00006   0.00570  -0.00886  -0.00096  -0.00012
  98        3PY        -0.00343   0.00147   0.00062   0.00222   0.00536
  99        3PZ         0.00037   0.00011  -0.00048   0.02056  -0.00058
 100 10  H  1S          0.01594   0.01067  -0.00546  -0.00001   0.05716
 101        2S          0.54715   1.35384  -0.69210   0.00006   1.21717
 102        3PX         0.00122   0.00354   0.00388   0.00096   0.00473
 103        3PY        -0.00080   0.00353   0.00855  -0.00222  -0.00256
 104        3PZ         0.00014  -0.00022  -0.00074  -0.02056   0.00050
 105 11  H  1S         -0.02180  -0.00061   0.01197   0.00001  -0.05716
 106        2S         -0.74832  -0.07755   1.51852  -0.00009  -1.21719
 107        3PX        -0.00165   0.00539   0.00163  -0.00096  -0.00461
 108        3PY        -0.00113  -0.00897   0.00037   0.00222  -0.00281
 109        3PZ         0.00004   0.00122   0.00004   0.02056   0.00009
 110 12  H  1S         -0.03774  -0.01006  -0.00652  -0.00000   0.05716
 111        2S         -1.29547  -1.27631  -0.82642   0.00003   1.21719
 112        3PX         0.00006  -0.00570   0.00886   0.00096  -0.00012
 113        3PY        -0.00343  -0.00147  -0.00062  -0.00222   0.00536
 114        3PZ         0.00037  -0.00011   0.00048  -0.02056  -0.00058
                          31        32        33        34        35
                           V         V         V         V         V
     Eigenvalues --     0.29371   0.29371   0.30677   0.30677   0.36411
   1 1   C  1S          0.04805  -0.08579  -0.02377   0.02297   0.08932
   2        2S         -0.11836   0.21134   0.03007  -0.02907  -0.64220
   3        3S         -1.72151   3.07357   1.90819  -1.84391   0.74760
   4        4PX        -0.11270   0.16819   0.15445   0.05033  -0.05233
   5        4PY         0.02772  -0.10959   0.15189   0.21641   0.02831
   6        4PZ        -0.00825   0.01967  -0.00917  -0.02099  -0.00550
   7        5PX        -1.19449   0.97667   0.93809   0.62962  -0.10259
   8        5PY        -0.51732  -1.17992   1.30464   1.53459   0.05548
   9        5PZ         0.00005   0.17282  -0.09691  -0.13610  -0.01077
  10        6D 0       -0.00485   0.00768   0.00732  -0.00659   0.03726
  11        6D+1       -0.00069  -0.00037   0.00370  -0.00278  -0.00244
  12        6D-1        0.00326   0.00392  -0.00047  -0.00441   0.00710
  13        6D+2        0.02864   0.01997   0.00034  -0.03576   0.00248
  14        6D-2        0.02223   0.00613  -0.03956   0.01539  -0.00465
  15 2   C  1S          0.05027   0.08450  -0.03178  -0.00910   0.08932
  16        2S         -0.12383  -0.20816   0.04020   0.01151  -0.64221
  17        3S         -1.80100  -3.02767   2.55098   0.73055   0.74755
  18        4PX        -0.11556  -0.16020   0.11396  -0.12846  -0.05103
  19        4PY        -0.03681  -0.11756  -0.02626   0.25582  -0.03108
  20        4PZ        -0.00143   0.00520   0.00815  -0.03358   0.00097
  21        5PX        -1.23953  -0.89148   0.55034  -1.08226  -0.10003
  22        5PY         0.42043  -1.24227  -0.40110   1.91196  -0.06094
  23        5PZ        -0.10318   0.09235   0.06893  -0.25668   0.00190
  24        6D 0       -0.00471  -0.00765   0.00885   0.00243   0.03719
  25        6D+1        0.00385  -0.00088  -0.00484   0.00148  -0.00341
  26        6D-1        0.00147  -0.00354   0.00516   0.00382   0.00747
  27        6D+2        0.03013  -0.02127   0.01292   0.03174   0.00204
  28        6D-2       -0.01914   0.00479   0.04347  -0.00196   0.00424
  29 3   C  1S         -0.09832   0.00128  -0.00801  -0.03207   0.08932
  30        2S          0.24220  -0.00315   0.01013   0.04058  -0.64220
  31        3S          3.52250  -0.04593   0.64287   2.57450   0.74756
  32        4PX        -0.00549  -0.03348   0.28904  -0.07413   0.00131
  33        4PY         0.22898  -0.00388   0.02868   0.08184  -0.05938
  34        4PZ        -0.02495  -0.00114   0.01039  -0.01228   0.00647
  35        5PX        -0.05124  -1.17385   2.22672  -0.56209   0.00255
  36        5PY         1.62877  -0.05273   0.12496   0.24608  -0.11644
  37        5PZ        -0.17802  -0.04908   0.09043  -0.05277   0.01267
  38        6D 0        0.00910  -0.00046   0.00269   0.00974   0.03729
  39        6D+1       -0.00106  -0.00452   0.00257  -0.00345  -0.00324
  40        6D-1        0.00102   0.00167  -0.00199  -0.00286   0.00644
  41        6D+2       -0.00656  -0.00193  -0.00983  -0.04547  -0.00544
  42        6D-2        0.00014   0.04129  -0.02994   0.00505  -0.00058
  43 4   C  1S          0.04805  -0.08579   0.02377  -0.02297   0.08932
  44        2S         -0.11836   0.21134  -0.03007   0.02907  -0.64220
  45        3S         -1.72151   3.07357  -1.90819   1.84391   0.74760
  46        4PX         0.11270  -0.16819   0.15445   0.05033   0.05233
  47        4PY        -0.02772   0.10959   0.15189   0.21641  -0.02831
  48        4PZ         0.00825  -0.01967  -0.00917  -0.02099   0.00550
  49        5PX         1.19449  -0.97667   0.93809   0.62962   0.10259
  50        5PY         0.51732   1.17992   1.30464   1.53459  -0.05548
  51        5PZ        -0.00005  -0.17282  -0.09691  -0.13610   0.01077
  52        6D 0       -0.00485   0.00768  -0.00732   0.00659   0.03726
  53        6D+1       -0.00069  -0.00037  -0.00370   0.00278  -0.00244
  54        6D-1        0.00326   0.00392   0.00047   0.00441   0.00710
  55        6D+2        0.02864   0.01997  -0.00034   0.03576   0.00248
  56        6D-2        0.02223   0.00613   0.03956  -0.01539  -0.00465
  57 5   C  1S          0.05027   0.08450   0.03178   0.00910   0.08932
  58        2S         -0.12383  -0.20816  -0.04020  -0.01151  -0.64221
  59        3S         -1.80100  -3.02767  -2.55098  -0.73055   0.74755
  60        4PX         0.11556   0.16020   0.11396  -0.12846   0.05103
  61        4PY         0.03681   0.11756  -0.02626   0.25582   0.03108
  62        4PZ         0.00143  -0.00520   0.00815  -0.03358  -0.00097
  63        5PX         1.23953   0.89148   0.55034  -1.08226   0.10003
  64        5PY        -0.42043   1.24227  -0.40110   1.91196   0.06094
  65        5PZ         0.10318  -0.09235   0.06893  -0.25668  -0.00190
  66        6D 0       -0.00471  -0.00765  -0.00885  -0.00243   0.03719
  67        6D+1        0.00385  -0.00088   0.00484  -0.00148  -0.00341
  68        6D-1        0.00147  -0.00354  -0.00516  -0.00382   0.00747
  69        6D+2        0.03013  -0.02127  -0.01292  -0.03174   0.00204
  70        6D-2       -0.01914   0.00479  -0.04347   0.00196   0.00424
  71 6   C  1S         -0.09832   0.00128   0.00801   0.03207   0.08932
  72        2S          0.24220  -0.00315  -0.01013  -0.04058  -0.64220
  73        3S          3.52250  -0.04593  -0.64287  -2.57450   0.74756
  74        4PX         0.00549   0.03348   0.28904  -0.07413  -0.00131
  75        4PY        -0.22898   0.00388   0.02868   0.08184   0.05938
  76        4PZ         0.02495   0.00114   0.01039  -0.01228  -0.00647
  77        5PX         0.05124   1.17385   2.22672  -0.56209  -0.00255
  78        5PY        -1.62877   0.05273   0.12496   0.24608   0.11644
  79        5PZ         0.17802   0.04908   0.09043  -0.05277  -0.01267
  80        6D 0        0.00910  -0.00046  -0.00269  -0.00974   0.03729
  81        6D+1       -0.00106  -0.00452  -0.00257   0.00345  -0.00324
  82        6D-1        0.00102   0.00167   0.00199   0.00286   0.00644
  83        6D+2       -0.00656  -0.00193   0.00983   0.04547  -0.00544
  84        6D-2        0.00014   0.04129   0.02994  -0.00505  -0.00058
  85 7   H  1S         -0.00935   0.01670   0.12259  -0.11847  -0.15419
  86        2S         -0.30270   0.54041  -0.25353   0.24502  -0.28996
  87        3PX        -0.01219  -0.00781  -0.00365   0.01586   0.00099
  88        3PY        -0.02317  -0.01245   0.01653   0.00648  -0.00054
  89        3PZ         0.00193   0.00098  -0.00195   0.00004   0.00010
  90 8   H  1S         -0.00978  -0.01645   0.16389   0.04693  -0.15419
  91        2S         -0.31667  -0.53234  -0.33895  -0.09707  -0.28997
  92        3PX        -0.01297   0.00869  -0.01016  -0.01287   0.00097
  93        3PY         0.02217  -0.01259  -0.01210   0.01281   0.00059
  94        3PZ        -0.00300   0.00176   0.00083  -0.00198  -0.00002
  95 9   H  1S          0.01914  -0.00025   0.04130   0.16540  -0.15419
  96        2S          0.61936  -0.00807  -0.08541  -0.34206  -0.28997
  97        3PX        -0.00037  -0.03004   0.01798  -0.00414  -0.00003
  98        3PY        -0.00098  -0.00079  -0.00327  -0.01514   0.00112
  99        3PZ         0.00009  -0.00132   0.00119   0.00144  -0.00012
 100 10  H  1S         -0.00935   0.01670  -0.12259   0.11847  -0.15419
 101        2S         -0.30270   0.54041   0.25353  -0.24502  -0.28996
 102        3PX         0.01219   0.00781  -0.00365   0.01586  -0.00099
 103        3PY         0.02317   0.01245   0.01653   0.00648   0.00054
 104        3PZ        -0.00193  -0.00098  -0.00195   0.00004  -0.00010
 105 11  H  1S         -0.00978  -0.01645  -0.16389  -0.04693  -0.15419
 106        2S         -0.31667  -0.53234   0.33895   0.09707  -0.28997
 107        3PX         0.01297  -0.00869  -0.01016  -0.01287  -0.00097
 108        3PY        -0.02217   0.01259  -0.01210   0.01281  -0.00059
 109        3PZ         0.00300  -0.00176   0.00083  -0.00198   0.00002
 110 12  H  1S          0.01914  -0.00025  -0.04130  -0.16540  -0.15419
 111        2S          0.61936  -0.00807   0.08541   0.34206  -0.28997
 112        3PX         0.00037   0.03004   0.01798  -0.00414   0.00003
 113        3PY         0.00098   0.00079  -0.00327  -0.01514  -0.00112
 114        3PZ        -0.00009   0.00132   0.00119   0.00144   0.00012
                          36        37        38        39        40
                           V         V         V         V         V
     Eigenvalues --     0.40597   0.41789   0.41789   0.43949   0.46944
   1 1   C  1S         -0.00000   0.04966  -0.06887   0.03927  -0.00000
   2        2S          0.00004  -0.45632   0.63288  -0.20409  -0.00001
   3        3S         -0.00011   1.22987  -1.70588   0.13266   0.00012
   4        4PX         0.14157  -0.01898   0.09121  -0.04113  -0.01866
   5        4PY         0.25762   0.08294   0.00305   0.02224   0.04309
   6        4PZ        -0.02117  -0.00982   0.00395  -0.00432   0.39960
   7        5PX        -0.23505   0.37385   0.19317   0.11822   0.01330
   8        5PY        -0.42774   0.59477   0.47024  -0.06396  -0.03076
   9        5PZ         0.03516  -0.04670  -0.04170   0.01242  -0.28480
[...]
    1       8      13     0.0046503       0.1849464
    1       9       7     0.0029844       0.0834830
    1       9      15     0.0030796       0.0679585
    1      10      11     0.0029845       0.0015498
    1      10      19     0.0029845       0.0015496
    1      11       8     0.0029844       0.0834822
    1      11      20     0.0030797       0.0679579
    1      12       7    -0.0029844      -0.0905137
    1      12      21     0.0046502       0.1849430
    2       3       7     0.0054198       0.1714613
    2       3       9    -0.0601076      -0.4357153
    2       3      10    -0.0030797      -0.3910681
    2       3      11     0.9904001       0.7652860
    2       3      12     0.8282235       0.4426923
    2       3      13     0.0046503       0.3111047
    2       3      14     0.0054198       0.1714590
    2       3      15     0.0046502       0.3111042
    2       3      17    -0.0601071      -0.4357149
    2       3      18    -0.0030796      -0.3910636
    2       4       9    -0.0601070      -0.1289612
    2       4      11     0.0054199       0.2314903
    2       4      12     0.1114936       0.1203847
    2       4      13    -0.0030797      -0.1150335
    2       4      14     0.0054198       0.2314906
    2       4      15     0.0046502       0.0575496
    2       4      17    -0.0601071      -0.1332178
    2       4      18    -0.0030796      -0.1150352
    2       4      21     0.0030796       0.1863680
    2       5       8     0.0054198       0.0359253
    2       5       9     0.1114937       0.0635759
    2       5      10    -0.0030796      -0.0239410
    2       5      12    -0.0601069      -0.0752339
    2       5      14     0.0054198       0.0359253
    2       5      15    -0.0030796      -0.0239386
    2       5      17    -0.0601071      -0.0752338
    2       5      18    -0.0030796      -0.0239410
    2       5      21    -0.0030796      -0.0239386
    2       6       7     0.0054199       0.2314913
    2       6       8     0.0054199       0.2314920
    2       6       9     0.1114943       0.1203858
    2       6      10     0.0046502       0.0575507
    2       6      12    -0.0601076      -0.1332193
    2       6      13    -0.0030797      -0.1150348
    2       6      17    -0.0601071      -0.1289626
    2       6      18     0.0030796       0.1863708
    2       6      21    -0.0030796      -0.1150334
    2       7      10     0.0046503       0.1849443
    2       7      11    -0.0029845      -0.0905149
    2       8       8    -0.0029845      -0.1904562
    2       8      13     0.7693339       0.7949984
    2       8      14    -0.0029844      -0.1904501
    2       9       7    -0.0029844      -0.0905138
    2       9      15     0.0046502       0.1849426
    2      10      11     0.0029845       0.0834810
    2      10      18     0.0030796       0.0679576
    2      11       8     0.0029844       0.0015496
    2      11      14     0.0029845       0.0015494
    2      12       7     0.0029844       0.0834827
    2      12      21     0.0030796       0.0679585
    3       4       9     0.0601070       0.4950404
    3       4      11     0.0054199       0.1714603
    3       4      12     0.1114936       0.4369431
    3       4      13    -0.0030797      -0.3910666
    3       4      14     0.9904001       0.7652865
    3       4      15     0.0046502       0.3111048
    3       4      16     0.0054199       0.1714601
    3       4      17     0.1114935       0.4369427
    3       4      18     0.0046502       0.3111045
    3       4      20    -0.0030797      -0.3910610
    3       5       9    -0.0601076      -0.1289627
    3       5      10     0.0030796       0.1863708
    3       5      12    -0.0601069      -0.1332192
    3       5      14     0.0054199       0.2314920
    3       5      15    -0.0030796      -0.1150334
    3       5      16     0.0054199       0.2314913
    3       5      17     0.1114935       0.1203857
    3       5      18     0.0046502       0.0575507
    3       5      20    -0.0030797      -0.1150348
    3       6       7     0.0054198       0.0359257
    3       6       9    -0.0601076      -0.0752346
    3       6      10    -0.0030797      -0.0239378
    3       6      12    -0.0601076      -0.0752347
    3       6      13    -0.0030797      -0.0239389
    3       6      16     0.0054198       0.0359257
    3       6      17     0.1114934       0.0635765
    3       6      18    -0.0030797      -0.0239378
    3       6      20    -0.0030797      -0.0239389
    3       7      10     0.0030797       0.0679585
    3       7      11     0.0029845       0.0834828
    3       8      13     0.0046503       0.1849436
    3       8      14    -0.0029844      -0.0905145
    3       9       7    -0.0029844      -0.1904520
    3       9      15     0.7693346       0.7949985
    3       9      16    -0.0029844      -0.1904547
    3      10      11    -0.0029845      -0.0905139
    3      10      18     0.0046502       0.1849427
    3      11      14     0.0029845       0.0834824
    3      11      20     0.0030797       0.0679585
    3      12       7     0.0029844       0.0015496
    3      12      16     0.0029844       0.0015494
    4       5       9    -0.0601070      -0.4357174
    4       5      12    -0.0601069      -0.4357171
    4       5      14     0.0054199       0.1714625
    4       5      15    -0.0030796      -0.3910611
    4       5      16     0.9904004       0.7652864
    4       5      17     0.8282238       0.4426940
    4       5      18     0.0046503       0.3111078
    4       5      19     0.0054199       0.1714646
    4       5      20     0.0046503       0.3111079
    4       5      21    -0.0030796      -0.3910637
    4       6       9    -0.0601070      -0.1332189
    4       6      12    -0.0601076      -0.1289625
    4       6      13     0.0030797       0.1863700
    4       6      16     0.0054198       0.2314931
    4       6      17     0.1114934       0.1203859
    4       6      18    -0.0030797      -0.1150348
    4       6      19     0.0054199       0.2314934
    4       6      20     0.0046503       0.0575515
    4       6      21    -0.0030796      -0.1150330
    4       7      11     0.0029845       0.0015496
    4       7      19     0.0029845       0.0015498
    4       8      13     0.0030797       0.0679579
    4       8      14     0.0029844       0.0834822
    4       9      15     0.0046502       0.1849430
    4       9      16    -0.0029844      -0.0905137
    4      10      11    -0.0029845      -0.1904568
    4      10      18     0.7693330       0.7949974
    4      10      19    -0.0029845      -0.1904556
    4      11      14    -0.0029845      -0.0905141
    4      11      20     0.0046503       0.1849464
    4      12      16     0.0029844       0.0834830
    4      12      21     0.0030796       0.0679585
    5       6       8     0.0054198       0.1714590
    5       6       9     0.1114937       0.4369431
    5       6      10    -0.0030796      -0.3910636
    5       6      12     0.0601069       0.4950406
    5       6      16     0.0054198       0.1714613
    5       6      17     0.1114934       0.4369431
    5       6      18    -0.0030797      -0.3910681
    5       6      19     0.9904001       0.7652860
    5       6      20     0.0046503       0.3111047
    5       6      21     0.0046502       0.3111042
    5       7      10     0.0030796       0.0679576
    5       7      19     0.0029845       0.0834810
    5       8       8     0.0029845       0.0015494
    5       8      14     0.0029844       0.0015496
    5       9      15     0.0030796       0.0679585
    5       9      16     0.0029844       0.0834827
    5      10      18     0.0046503       0.1849443
    5      10      19    -0.0029845      -0.0905149
    5      11       8    -0.0029844      -0.1904501
    5      11      14    -0.0029845      -0.1904562
    5      11      20     0.7693339       0.7949984
    5      12      16    -0.0029844      -0.0905138
    5      12      21     0.0046502       0.1849426
    6       7      10     0.0046502       0.1849427
    6       7      19    -0.0029845      -0.0905139
    6       8       8     0.0029845       0.0834824
    6       8      13     0.0030797       0.0679585
    6       9       7     0.0029844       0.0015494
    6       9      16     0.0029844       0.0015496
    6      10      18     0.0030797       0.0679585
    6      10      19     0.0029845       0.0834828
    6      11       8    -0.0029844      -0.0905145
    6      11      20     0.0046503       0.1849436
    6      12       7    -0.0029844      -0.1904547
    6      12      16    -0.0029844      -0.1904520
    6      12      21     0.7693346       0.7949985
    7      10      11     0.0029845       0.0029938
    7      10      19     0.0029845       0.0029938
    8      11       8     0.0029844       0.0029938
    8      11      14     0.0029844       0.0029938
    9      12       7     0.0029844       0.0029939
    9      12      16     0.0029844       0.0029939


 Atom-Atom Net Linear NLMO/NPA Bond Orders:

     Atom    1       2       3       4       5       6       7       8       9
     ---- ------  ------  ------  ------  ------  ------  ------  ------  ------
   1.  C  0.0000  1.2879  0.0024 -0.0115  0.0024  1.7129  0.7625  0.0008  0.0033
   2.  C  1.2879  0.0000  1.7129  0.0024 -0.0115  0.0024  0.0008  0.7625  0.0007
   3.  C  0.0024  1.7129  0.0000  1.2879  0.0024 -0.0115  0.0031  0.0007  0.7625
   4.  C -0.0115  0.0024  1.2879  0.0000  1.7129  0.0024  0.0039  0.0033  0.0008
   5.  C  0.0024 -0.0115  0.0024  1.7129  0.0000  1.2879  0.0033  0.0039  0.0031
   6.  C  1.7129  0.0024 -0.0115  0.0024  1.2879  0.0000  0.0007  0.0031  0.0039
   7.  H  0.7625  0.0008  0.0031  0.0039  0.0033  0.0007  0.0000 -0.0015 -0.0010
   8.  H  0.0008  0.7625  0.0007  0.0033  0.0039  0.0031 -0.0015  0.0000 -0.0015
   9.  H  0.0033  0.0007  0.7625  0.0008  0.0031  0.0039 -0.0010 -0.0015  0.0000
  10.  H  0.0039  0.0031  0.0008  0.7625  0.0007  0.0033  0.0070 -0.0010 -0.0015
  11.  H  0.0031  0.0039  0.0033  0.0007  0.7625  0.0008 -0.0010  0.0069 -0.0009
  12.  H  0.0007  0.0033  0.0039  0.0031  0.0008  0.7625 -0.0015 -0.0010  0.0070

     Atom   10      11      12
     ---- ------  ------  ------
   1.  C  0.0039  0.0031  0.0007
   2.  C  0.0031  0.0039  0.0033
   3.  C  0.0008  0.0033  0.0039
   4.  C  0.7625  0.0007  0.0031
   5.  C  0.0007  0.7625  0.0008
   6.  C  0.0033  0.0008  0.7625
   7.  H  0.0070 -0.0010 -0.0015
   8.  H -0.0010  0.0069 -0.0010
   9.  H -0.0015 -0.0009  0.0070
  10.  H  0.0000 -0.0015 -0.0010
  11.  H -0.0015  0.0000 -0.0015
  12.  H -0.0010 -0.0015  0.0000


 Linear NLMO/NPA Bond Orders, Totals by Atom:

     Atom    1
     ---- ------
   1.  C  3.7684
   2.  C  3.7684
   3.  C  3.7684
   4.  C  3.7684
   5.  C  3.7684
   6.  C  3.7684
   7.  H  0.7764
   8.  H  0.7763
   9.  H  0.7765
  10.  H  0.7764
  11.  H  0.7764
  12.  H  0.7764


 NATURAL CHEMICAL SHIELDING ANALYSIS:

 Summary of isotropic NMR chemical shielding
 Total Lewis (L) and non-Lewis (NL) contributions: (ppm)

        NBO           C  1    C  2    C  3    C  4    C  5    C  6    H  7
 ---------------    ------- ------- ------- ------- ------- ------- -------
   1.  C 1(cr)   L   198.69    0.33    0.20    0.17    0.20    0.33   -1.05
                 NL   -0.09    0.00    0.00    0.00    0.00    0.00   -0.01
   2.  C 2(cr)   L     0.33  198.69    0.33    0.20    0.17    0.20    0.01
                 NL    0.00   -0.09    0.00    0.00    0.00    0.00    0.00
   3.  C 3(cr)   L     0.20    0.33  198.69    0.33    0.20    0.17    0.09
                 NL    0.00    0.00   -0.09    0.00    0.00    0.00    0.00
   4.  C 4(cr)   L     0.17    0.20    0.33  198.69    0.33    0.20    0.09
                 NL    0.00    0.00    0.00   -0.09    0.00    0.00    0.00
   5.  C 5(cr)   L     0.20    0.17    0.20    0.33  198.69    0.33    0.09
                 NL    0.00    0.00    0.00    0.00   -0.09    0.00    0.00
   6.  C 6(cr)   L     0.33    0.20    0.17    0.20    0.33  198.69    0.01
                 NL    0.00    0.00    0.00    0.00    0.00   -0.09    0.00
   7.  C 1- C 2  L   -40.86  -40.86   -4.42    0.12    0.12   -4.42   -1.41
                 NL   -4.26   -4.26    3.22   -0.49   -0.49    3.22    0.22
   8.  C 1- C 6  L   -40.86   -4.42    0.12    0.12   -4.42  -40.86   -1.41
                 NL   -4.26    3.22   -0.49   -0.49    3.22   -4.26    0.22
   9.  C 1- C 6  L     2.85    3.35    1.66    1.66    3.35    2.85    0.63
                 NL    1.46   -2.49    3.01    3.01   -2.49    1.46    0.20
  10.  C 1- H 7  L   -45.67   -4.26   -0.54   -0.26   -0.54   -4.26   26.93
                 NL    1.78    2.23    0.27    0.00    0.27    2.23   -0.09
  11.  C 2- C 3  L    -4.42  -40.86  -40.86   -4.42    0.12    0.12    0.03
                 NL    3.22   -4.26   -4.26    3.22   -0.49   -0.49   -0.35
  12.  C 2- C 3  L     3.35    2.85    2.85    3.35    1.66    1.66    0.54
                 NL   -2.49    1.46    1.46   -2.49    3.01    3.01    0.07
  13.  C 2- H 8  L    -4.26  -45.67   -4.26   -0.54   -0.26   -0.54   -0.13
                 NL    2.23    1.78    2.23    0.27    0.00    0.27   -0.06
  14.  C 3- C 4  L     0.12   -4.42  -40.86  -40.86   -4.42    0.12   -0.18
                 NL   -0.49    3.22   -4.26   -4.26    3.22   -0.49    0.03
  15.  C 3- H 9  L    -0.54   -4.26  -45.67   -4.26   -0.54   -0.26   -0.01
                 NL    0.27    2.23    1.78    2.23    0.27    0.00   -0.02
  16.  C 4- C 5  L     0.12    0.12   -4.42  -40.86  -40.86   -4.42   -0.18
                 NL   -0.49   -0.49    3.22   -4.26   -4.26    3.22    0.03
  17.  C 4- C 5  L     1.66    1.66    3.35    2.85    2.85    3.35    0.74
                 NL    3.01    3.01   -2.49    1.46    1.46   -2.49    0.09
  18.  C 4- H10  L    -0.26   -0.54   -4.26  -45.67   -4.26   -0.54   -0.06
                 NL    0.00    0.27    2.23    1.78    2.23    0.27    0.01
  19.  C 5- C 6  L    -4.42    0.12    0.12   -4.42  -40.86  -40.86    0.03
                 NL    3.22   -0.49   -0.49    3.22   -4.26   -4.26   -0.35
  20.  C 5- H11  L    -0.54   -0.26   -0.54   -4.26  -45.67   -4.26   -0.01
                 NL    0.27    0.00    0.27    2.23    1.78    2.23   -0.02
  21.  C 6- H12  L    -4.26   -0.54   -0.26   -0.54   -4.26  -45.67   -0.13
                 NL    2.23    0.27    0.00    0.27    2.23    1.78   -0.06
 ---------------    ------- ------- ------- ------- ------- ------- -------
           Lewis      61.90   61.90   61.90   61.90   61.90   61.90   24.67
       non-Lewis       5.63    5.63    5.63    5.63    5.63    5.63   -0.09
 ---------------    ------- ------- ------- ------- ------- ------- -------
           Total      67.53   67.53   67.53   67.53   67.53   67.53   24.58

        NBO           H  8    H  9    H 10    H 11    H 12
 ---------------    ------- ------- ------- ------- -------
   1.  C 1(cr)   L     0.01    0.09    0.09    0.09    0.01
                 NL    0.00    0.00    0.00    0.00    0.00
   2.  C 2(cr)   L    -1.05    0.01    0.09    0.09    0.09
                 NL   -0.01    0.00    0.00    0.00    0.00
   3.  C 3(cr)   L     0.01   -1.05    0.01    0.09    0.09
                 NL    0.00   -0.01    0.00    0.00    0.00
   4.  C 4(cr)   L     0.09    0.01   -1.05    0.01    0.09
                 NL    0.00    0.00   -0.01    0.00    0.00
   5.  C 5(cr)   L     0.09    0.09    0.01   -1.05    0.01
                 NL    0.00    0.00    0.00   -0.01    0.00
   6.  C 6(cr)   L     0.09    0.09    0.09    0.01   -1.05
                 NL    0.00    0.00    0.00    0.00   -0.01
   7.  C 1- C 2  L    -1.41    0.03   -0.18   -0.18    0.03
                 NL    0.22   -0.35    0.03    0.03   -0.35
   8.  C 1- C 6  L     0.03   -0.18   -0.18    0.03   -1.41
                 NL   -0.35    0.03    0.03   -0.35    0.22
   9.  C 1- C 6  L     0.54    0.74    0.74    0.54    0.63
                 NL    0.07    0.09    0.09    0.07    0.20
  10.  C 1- H 7  L    -0.13   -0.01   -0.06   -0.01   -0.13
                 NL   -0.06   -0.02    0.01   -0.02   -0.06
  11.  C 2- C 3  L    -1.41   -1.41    0.03   -0.18   -0.18
                 NL    0.22    0.22   -0.35    0.03    0.03
  12.  C 2- C 3  L     0.63    0.63    0.54    0.74    0.74
                 NL    0.20    0.20    0.07    0.09    0.09
  13.  C 2- H 8  L    26.93   -0.13   -0.01   -0.06   -0.01
                 NL   -0.09   -0.06   -0.02    0.01   -0.02
  14.  C 3- C 4  L     0.03   -1.41   -1.41    0.03   -0.18
                 NL   -0.35    0.22    0.22   -0.35    0.03
  15.  C 3- H 9  L    -0.13   26.93   -0.13   -0.01   -0.06
                 NL   -0.06   -0.09   -0.06   -0.02    0.01
  16.  C 4- C 5  L    -0.18    0.03   -1.41   -1.41    0.03
                 NL    0.03   -0.35    0.22    0.22   -0.35
  17.  C 4- C 5  L     0.74    0.54    0.63    0.63    0.54
                 NL    0.09    0.07    0.20    0.20    0.07
  18.  C 4- H10  L    -0.01   -0.13   26.93   -0.13   -0.01
                 NL   -0.02   -0.06   -0.09   -0.06   -0.02
  19.  C 5- C 6  L    -0.18   -0.18    0.03   -1.41   -1.41
                 NL    0.03    0.03   -0.35    0.22    0.22
  20.  C 5- H11  L    -0.06   -0.01   -0.13   26.93   -0.13
                 NL    0.01   -0.02   -0.06   -0.09   -0.06
  21.  C 6- H12  L    -0.01   -0.06   -0.01   -0.13   26.93
                 NL   -0.02    0.01   -0.02   -0.06   -0.09
 ---------------    ------- ------- ------- ------- -------
           Lewis      24.67   24.67   24.67   24.67   24.67
       non-Lewis      -0.09   -0.09   -0.09   -0.09   -0.09
 ---------------    ------- ------- ------- ------- -------
           Total      24.58   24.58   24.58   24.58   24.58

 Maximum scratch memory used by NBO was 435804 words (3.32 MB)
 Maximum scratch memory used by G16NBO was 1025366 words (7.82 MB)

 Opening RunExU unformatted file "/scratch/yanfeig/Gau-34691.EUF"
 Read unf file /scratch/yanfeig/Gau-34691.EUF:
 Label Gaussian matrix elements                                         IVers= 1 NLab= 2 Version=EM64L-G16RevB.01
 Title None                                                            
 NAtoms=    12 NBasis=   114 NBsUse=   114 ICharg=     0 Multip=     1 NE=    42 Len12L=8 Len4L=8 IOpCl= 0 ICGU= -1
 GAUSSIAN SCALARS                    NI= 1 NR= 1 NTot=       1 LenBuf=    2 NRI=1 N=    1000
 NPA CHARGES                         NI= 0 NR= 1 NTot=      12 LenBuf=  256 NRI=1 N=      12
 Recovered energy= -232.082903840     dipole=      0.000000000000     -0.000000000000      0.000000000000
 1\1\GINC-NODE70\SP\RB3LYP\def2SVP\C6H6\YANFEIG\03-Feb-2020\0\\# b3lyp/
 def2svp nmr=GIAO scf=(maxcycle=512, xqc) pop=(full,mbs,hirshfeld,nbo6r
 ead)\\None\\0,1\C,0,-1.2127,0.65594,-0.12732\C,0,-1.18234,-0.72019,0.0
 2249\C,0,0.03036,-1.37613,0.14981\C,0,1.2127,-0.65594,0.12732\C,0,1.18
 234,0.72019,-0.02249\C,0,-0.03036,1.37613,-0.14981\H,0,-2.15902,1.1677
 9,-0.2267\H,0,-2.10496,-1.28219,0.04\H,0,0.05405,-2.44998,0.2667\H,0,2
 .15902,-1.16779,0.2267\H,0,2.10496,1.28219,-0.04\H,0,-0.05405,2.44998,
 -0.2667\\Version=EM64L-G16RevB.01\State=1-AG\HF=-232.0829038\RMSD=3.28
 1e-09\Dipole=0.,0.,0.\Quadrupole=1.6397097,1.5935107,-3.2332204,0.0246
 018,0.2280218,-0.5265721\PG=CI [X(C6H6)]\\@


 The juvenile sea squirt wanders through the sea searching
 for a suitable rock or hunk of coral to cling to and make
 its home for life.  For this task it has a rudimentary
 nervous system.  When it finds its spot and takes root, it
 doesn't need its brain any more so it eats it.
 It's rather like getting tenure.

                               -- source unknown
 Job cpu time:       0 days  0 hours  3 minutes 14.3 seconds.
 Elapsed time:       0 days  0 hours  0 minutes 13.8 seconds.
 File lengths (MBytes):  RWF=     15 Int=      0 D2E=      0 Chk=      2 Scr=      1
 Normal termination of Gaussian 16 at Mon Feb  3 15:18:01 2020.
