 Entering Gaussian System, Link 0=/opt/g16/g16
 Initial command:
 /opt/g16/l1.exe "/scratch/yanfeig/Gau-34997.inp" -scrdir="/scratch/yanfeig/"
 Entering Link 1 = /opt/g16/l1.exe PID=     34999.
  
 Copyright (c) 1988-2017, Gaussian, Inc.  All Rights Reserved.
  
 This is part of the Gaussian(R) 16 program.  It is based on
 the Gaussian(R) 09 system (copyright 2009, Gaussian, Inc.),
 the Gaussian(R) 03 system (copyright 2003, Gaussian, Inc.),
 the Gaussian(R) 98 system (copyright 1998, Gaussian, Inc.),
 the Gaussian(R) 94 system (copyright 1995, Gaussian, Inc.),
 the Gaussian 92(TM) system (copyright 1992, Gaussian, Inc.),
 the Gaussian 90(TM) system (copyright 1990, Gaussian, Inc.),
 the Gaussian 88(TM) system (copyright 1988, Gaussian, Inc.),
 the Gaussian 86(TM) system (copyright 1986, Carnegie Mellon
 University), and the Gaussian 82(TM) system (copyright 1983,
 Carnegie Mellon University). Gaussian is a federally registered
 trademark of Gaussian, Inc.
  
 This software contains proprietary and confidential information,
 including trade secrets, belonging to Gaussian, Inc.
  
 This software is provided under written license and may be
 used, copied, transmitted, or stored only in accord with that
 written license.
  
 The following legend is applicable only to US Government
 contracts under FAR:
  
                    RESTRICTED RIGHTS LEGEND
  
 Use, reproduction and disclosure by the US Government is
 subject to restrictions as set forth in subparagraphs (a)
 and (c) of the Commercial Computer Software - Restricted
 Rights clause in FAR 52.227-19.
  
 Gaussian, Inc.
 340 Quinnipiac St., Bldg. 40, Wallingford CT 06492
  
  
 ---------------------------------------------------------------
 Warning -- This program may not be used in any manner that
 competes with the business of Gaussian, Inc. or will provide
 assistance to any competitor of Gaussian, Inc.  The licensee
 of this program is prohibited from giving any competitor of
 Gaussian, Inc. access to this program.  By using this program,
 the user acknowledges that Gaussian, Inc. is engaged in the
 business of creating and licensing software in the field of
 computational chemistry and represents and warrants to the
 licensee that it is not a competitor of Gaussian, Inc. and that
 it will not use this program in any manner prohibited above.
 ---------------------------------------------------------------
  

 Cite this work as:
 Gaussian 16, Revision B.01,
 M. J. Frisch, G. W. Trucks, H. B. Schlegel, G. E. Scuseria, 
 M. A. Robb, J. R. Cheeseman, G. Scalmani, V. Barone, 
 G. A. Petersson, H. Nakatsuji, X. Li, M. Caricato, A. V. Marenich, 
 J. Bloino, B. G. Janesko, R. Gomperts, B. Mennucci, H. P. Hratchian, 
 J. V. Ortiz, A. F. Izmaylov, J. L. Sonnenberg, D. Williams-Young, 
 F. Ding, F. Lipparini, F. Egidi, J. Goings, B. Peng, A. Petrone, 
 T. Henderson, D. Ranasinghe, V. G. Zakrzewski, J. Gao, N. Rega, 
 G. Zheng, W. Liang, M. Hada, M. Ehara, K. Toyota, R. Fukuda, 
 J. Hasegawa, M. Ishida, T. Nakajima, Y. Honda, O. Kitao, H. Nakai, 
 T. Vreven, K. Throssell, J. A. Montgomery, Jr., J. E. Peralta, 
 F. Ogliaro, M. J. Bearpark, J. J. Heyd, E. N. Brothers, K. N. Kudin, 
 V. N. Staroverov, T. A. Keith, R. Kobayashi, J. Normand, 
 K. Raghavachari, A. P. Rendell, J. C. Burant, S. S. Iyengar, 
 J. Tomasi, M. Cossi, J. M. Millam, M. Klene, C. Adamo, R. Cammi, 
 J. W. Ochterski, R. L. Martin, K. Morokuma, O. Farkas, 
 J. B. Foresman, and D. J. Fox, Gaussian, Inc., Wallingford CT, 2016.
 
 ******************************************
 Gaussian 16:  EM64L-G16RevB.01 20-Dec-2017
                 3-Feb-2020 
 ******************************************
 %chk=CHEMBL1521196_opt.chk
 %nprocshared=20
 Will use up to   20 processors via shared memory.
 ----------------------------------------------------------------------
 # b3lyp/def2svp scf=(maxcycle=512, xqc) pop=(full,mbs,hirshfeld,nbo6re
 ad)
 ----------------------------------------------------------------------
 1/38=1,163=2,172=1/1;
 2/12=2,17=6,18=5,40=1/2;
 3/5=43,7=101,11=2,25=1,30=1,74=-5/1,2,3;
 4//1;
 5/5=2,7=512,8=3,13=1,38=5/2,8;
 6/7=3,27=100,28=1,40=2,79=1,113=1,114=1,124=2103/1,12;
 99/5=1,9=1/99;
 ----
 None
 ----
 Symbolic Z-matrix:
 Charge =  1 Multiplicity = 2
 C                    -1.2127    0.65594  -0.12732 
 C                    -1.18234  -0.72019   0.02249 
 C                     0.03036  -1.37613   0.14981 
 C                     1.2127   -0.65594   0.12732 
 C                     1.18234   0.72019  -0.02249 
 C                    -0.03036   1.37613  -0.14981 
 H                    -2.15902   1.16779  -0.2267 
 H                    -2.10496  -1.28219   0.04 
 H                     0.05405  -2.44998   0.2667 
 H                     2.15902  -1.16779   0.2267 
 H                     2.10496   1.28219  -0.04 
 H                    -0.05405   2.44998  -0.2667 
 
                          Input orientation:                          
 ---------------------------------------------------------------------
 Center     Atomic      Atomic             Coordinates (Angstroms)
 Number     Number       Type             X           Y           Z
 ---------------------------------------------------------------------
      1          6           0       -1.212700    0.655940   -0.127320
      2          6           0       -1.182340   -0.720190    0.022490
      3          6           0        0.030360   -1.376130    0.149810
      4          6           0        1.212700   -0.655940    0.127320
      5          6           0        1.182340    0.720190   -0.022490
      6          6           0       -0.030360    1.376130   -0.149810
      7          1           0       -2.159020    1.167790   -0.226700
      8          1           0       -2.104960   -1.282190    0.040000
      9          1           0        0.054050   -2.449980    0.266700
     10          1           0        2.159020   -1.167790    0.226700
     11          1           0        2.104960    1.282190   -0.040000
     12          1           0       -0.054050    2.449980   -0.266700
 ---------------------------------------------------------------------
                    Distance matrix (angstroms):
                    1          2          3          4          5
     1  C    0.000000
     2  C    1.384593   0.000000
     3  C    2.398188   1.384597   0.000000
     4  C    2.769194   2.398194   1.384596   0.000000
     5  C    2.398194   2.769193   2.398187   1.384593   0.000000
     6  C    1.384596   2.398187   2.769187   2.398188   1.384597
     7  H    1.080457   2.140203   3.377377   3.849652   3.377386
     8  H    2.140204   1.080453   2.140204   3.377378   3.849646
     9  H    3.377373   2.140204   1.080453   2.140205   3.377373
    10  H    3.849652   3.377386   2.140213   1.080457   2.140203
    11  H    3.377378   3.849646   3.377374   2.140204   1.080453
    12  H    2.140205   3.377373   3.849639   3.377373   2.140204
                    6          7          8          9         10
     6  C    0.000000
     7  H    2.140213   0.000000
     8  H    3.377374   2.465046   0.000000
     9  H    3.849639   4.269588   2.465046   0.000000
    10  H    3.377377   4.930109   4.269598   2.465058   0.000000
    11  H    2.140204   4.269598   4.930098   4.269589   2.465046
    12  H    1.080453   2.465058   4.269589   4.930092   4.269588
                   11         12
    11  H    0.000000
    12  H    2.465046   0.000000
 Stoichiometry    C6H6(1+,2)
 Framework group  CI[X(C6H6)]
 Deg. of freedom    15
 Full point group                 CI      NOp   2
 Largest Abelian subgroup         CI      NOp   2
 Largest concise Abelian subgroup CI      NOp   2
                         Standard orientation:                         
 ---------------------------------------------------------------------
 Center     Atomic      Atomic             Coordinates (Angstroms)
 Number     Number       Type             X           Y           Z
 ---------------------------------------------------------------------
      1          6           0       -1.212700    0.655940   -0.127320
      2          6           0       -1.182340   -0.720190    0.022490
      3          6           0        0.030360   -1.376130    0.149810
      4          6           0        1.212700   -0.655940    0.127320
      5          6           0        1.182340    0.720190   -0.022490
      6          6           0       -0.030360    1.376130   -0.149810
      7          1           0       -2.159020    1.167790   -0.226700
      8          1           0       -2.104960   -1.282190    0.040000
      9          1           0        0.054050   -2.449980    0.266700
     10          1           0        2.159020   -1.167790    0.226700
     11          1           0        2.104960    1.282190   -0.040000
     12          1           0       -0.054050    2.449980   -0.266700
 ---------------------------------------------------------------------
 Rotational constants (GHZ):           5.7831924           5.7831543           2.8915867
 Standard basis: def2SVP (5D, 7F)
 There are    60 symmetry adapted cartesian basis functions of AG  symmetry.
 There are    60 symmetry adapted cartesian basis functions of AU  symmetry.
 There are    57 symmetry adapted basis functions of AG  symmetry.
 There are    57 symmetry adapted basis functions of AU  symmetry.
   114 basis functions,   192 primitive gaussians,   120 cartesian basis functions
    21 alpha electrons       20 beta electrons
       nuclear repulsion energy       204.8705961574 Hartrees.
 NAtoms=   12 NActive=   12 NUniq=    6 SFac= 4.00D+00 NAtFMM=   60 NAOKFM=F Big=F
 Integral buffers will be    131072 words long.
 Raffenetti 2 integral format.
 Two-electron integral symmetry is turned on.
 One-electron integrals computed using PRISM.
   2 Symmetry operations used in ECPInt.
 ECPInt:  NShTT=    1485 NPrTT=    5349 LenC2=    1486 LenP2D=    4584.
 LDataN:  DoStor=T MaxTD1= 4 Len=   56
 NBasis=   114 RedAO= T EigKep=  2.95D-04  NBF=    57    57
 NBsUse=   114 1.00D-06 EigRej= -1.00D+00 NBFU=    57    57
 ExpMin= 1.22D-01 ExpMax= 1.24D+03 ExpMxC= 1.86D+02 IAcc=3 IRadAn=         5 AccDes= 0.00D+00
 Harris functional with IExCor=  402 and IRadAn=       5 diagonalized for initial guess.
 HarFok:  IExCor=  402 AccDes= 0.00D+00 IRadAn=         5 IDoV= 1 UseB2=F ITyADJ=14
 ICtDFT=  3500011 ScaDFX=  1.000000  1.000000  1.000000  1.000000
 FoFCou: FMM=F IPFlag=           0 FMFlag=      100000 FMFlg1=           0
         NFxFlg=           0 DoJE=T BraDBF=F KetDBF=T FulRan=T
         wScrn=  0.000000 ICntrl=       500 IOpCl=  0 I1Cent=   200000004 NGrid=           0
         NMat0=    1 NMatS0=      1 NMatT0=    0 NMatD0=    1 NMtDS0=    0 NMtDT0=    0
 Petite list used in FoFCou.
 Initial guess orbital symmetries:
 Alpha Orbitals:
       Occupied  (AG) (AU) (AU) (AU) (AG) (AG) (AG) (AU) (AU) (AG)
                 (AG) (AG) (AU) (AU) (AU) (AU) (AU) (AG) (AG) (AG)
                 (AG)
       Virtual   (AU) (AU) (AG) (AG) (AU) (AU) (AG) (AG) (AU) (AG)
                 (AG) (AU) (AU) (AG) (AU) (AG) (AU) (AU) (AU) (AU)
                 (AG) (AG) (AG) (AG) (AG) (AU) (AU) (AU) (AU) (AG)
                 (AG) (AG) (AU) (AG) (AG) (AG) (AU) (AU) (AU) (AG)
                 (AU) (AU) (AU) (AG) (AG) (AG) (AU) (AU) (AG) (AG)
                 (AU) (AG) (AU) (AG) (AG) (AU) (AU) (AU) (AU) (AG)
                 (AG) (AU) (AU) (AU) (AG) (AG) (AU) (AG) (AG) (AU)
                 (AU) (AG) (AU) (AG) (AG) (AG) (AG) (AU) (AU) (AG)
                 (AG) (AG) (AU) (AU) (AU) (AG) (AU) (AU) (AU) (AG)
                 (AG) (AG) (AU)
 Beta  Orbitals:
       Occupied  (AG) (AU) (AU) (AU) (AG) (AG) (AG) (AU) (AU) (AG)
                 (AG) (AG) (AU) (AU) (AU) (AU) (AU) (AG) (AG) (AG)
       Virtual   (AG) (AU) (AU) (AG) (AG) (AU) (AU) (AG) (AG) (AU)
                 (AG) (AG) (AU) (AU) (AG) (AU) (AG) (AU) (AU) (AU)
                 (AU) (AG) (AG) (AG) (AG) (AG) (AU) (AU) (AU) (AU)
                 (AG) (AG) (AG) (AU) (AG) (AG) (AG) (AU) (AU) (AU)
                 (AG) (AU) (AU) (AU) (AG) (AG) (AG) (AU) (AU) (AG)
                 (AG) (AU) (AG) (AU) (AG) (AG) (AU) (AU) (AU) (AU)
                 (AG) (AG) (AU) (AU) (AU) (AG) (AG) (AU) (AG) (AG)
                 (AU) (AU) (AG) (AU) (AG) (AG) (AG) (AG) (AU) (AU)
                 (AG) (AG) (AG) (AU) (AU) (AU) (AG) (AU) (AU) (AU)
                 (AG) (AG) (AG) (AU)
 The electronic state of the initial guess is 2-AG.
 Initial guess <Sx>= 0.0000 <Sy>= 0.0000 <Sz>= 0.5000 <S**2>= 0.7500 S= 0.5000
 Keep R1 and R2 ints in memory in symmetry-blocked form, NReq=40455900.
 Requested convergence on RMS density matrix=1.00D-08 within 128 cycles.
 Requested convergence on MAX density matrix=1.00D-06.
 Requested convergence on             energy=1.00D-06.
 No special actions if energy rises.
 Integral accuracy reduced to 1.0D-05 until final iterations.
 Initial convergence to 1.0D-05 achieved.  Increase integral accuracy.
 SCF Done:  E(UB3LYP) =  -231.741220257     A.U. after   26 cycles
            NFock= 26  Conv=0.24D-08     -V/T= 2.0094
 <Sx>= 0.0000 <Sy>= 0.0000 <Sz>= 0.5000 <S**2>= 0.7610 S= 0.5055
 <L.S>= 0.000000000000E+00
 Annihilation of the first spin contaminant:
 S**2 before annihilation     0.7610,   after     0.7500
 QCSCF skips out because SCF is already converged.

 **********************************************************************

            Population analysis using the SCF Density.

 **********************************************************************

 Orbital symmetries:
 Alpha Orbitals:
       Occupied  (AU) (AG) (AU) (AG) (AU) (AG) (AG) (AU) (AU) (AG)
                 (AG) (AG) (AU) (AU) (AU) (AU) (AU) (AG) (AG) (AG)
                 (AG)
       Virtual   (AU) (AU) (AG) (AG) (AU) (AU) (AG) (AG) (AU) (AG)
                 (AG) (AU) (AU) (AG) (AU) (AU) (AU) (AG) (AU) (AU)
                 (AG) (AG) (AG) (AG) (AG) (AU) (AU) (AU) (AU) (AG)
                 (AG) (AG) (AG) (AG) (AU) (AG) (AU) (AU) (AU) (AG)
                 (AU) (AU) (AU) (AG) (AG) (AG) (AG) (AG) (AU) (AU)
                 (AU) (AG) (AU) (AG) (AG) (AU) (AU) (AU) (AU) (AG)
                 (AG) (AU) (AU) (AU) (AG) (AG) (AG) (AU) (AG) (AG)
                 (AU) (AU) (AU) (AG) (AG) (AG) (AG) (AU) (AU) (AG)
                 (AG) (AG) (AU) (AU) (AG) (AU) (AU) (AU) (AU) (AG)
                 (AG) (AG) (AU)
 Beta  Orbitals:
       Occupied  (AU) (AG) (AU) (AG) (AU) (AG) (AG) (AU) (AU) (AG)
                 (AG) (AG) (AU) (AU) (AU) (AU) (AU) (AG) (AG) (AG)
       Virtual   (AG) (AU) (AU) (AG) (AU) (AU) (AG) (AG) (AG) (AU)
                 (AG) (AG) (AU) (AU) (AG) (AU) (AU) (AU) (AG) (AU)
                 (AU) (AG) (AG) (AG) (AG) (AG) (AU) (AU) (AU) (AU)
                 (AG) (AG) (AG) (AG) (AG) (AG) (AU) (AU) (AU) (AU)
                 (AG) (AU) (AU) (AU) (AG) (AG) (AG) (AG) (AG) (AU)
                 (AU) (AU) (AG) (AU) (AG) (AG) (AU) (AU) (AU) (AU)
                 (AG) (AG) (AU) (AU) (AU) (AG) (AG) (AU) (AG) (AG)
                 (AG) (AU) (AU) (AU) (AG) (AG) (AG) (AG) (AU) (AU)
                 (AG) (AG) (AG) (AU) (AU) (AG) (AU) (AU) (AU) (AU)
                 (AG) (AG) (AG) (AU)
 The electronic state is 2-AG.
 Alpha  occ. eigenvalues --  -10.45466 -10.45461 -10.42171 -10.42168 -10.42131
 Alpha  occ. eigenvalues --  -10.42125  -1.10354  -0.99742  -0.97442  -0.83729
 Alpha  occ. eigenvalues --   -0.83582  -0.75505  -0.69575  -0.68037  -0.65898
 Alpha  occ. eigenvalues --   -0.64619  -0.62193  -0.57627  -0.57468  -0.52135
 Alpha  occ. eigenvalues --   -0.48755
 Alpha virt. eigenvalues --   -0.25730  -0.23581  -0.12063  -0.08281  -0.07879
 Alpha virt. eigenvalues --   -0.06925  -0.03805  -0.03151  -0.00708   0.07517
 Alpha virt. eigenvalues --    0.07783   0.08573   0.08821   0.13942   0.19464
 Alpha virt. eigenvalues --    0.19501   0.21072   0.23045   0.24000   0.26086
 Alpha virt. eigenvalues --    0.29019   0.29042   0.30392   0.32454   0.33651
 Alpha virt. eigenvalues --    0.37739   0.39090   0.43581   0.44560   0.46248
 Alpha virt. eigenvalues --    0.46948   0.48030   0.50671   0.51373   0.53451
 Alpha virt. eigenvalues --    0.53489   0.55950   0.56545   0.62481   0.69019
 Alpha virt. eigenvalues --    0.80621   0.81407   0.92278   0.99906   1.01052
 Alpha virt. eigenvalues --    1.02960   1.06458   1.06917   1.07632   1.07856
 Alpha virt. eigenvalues --    1.32517   1.41990   1.42766   1.46393   1.50382
 Alpha virt. eigenvalues --    1.52561   1.52979   1.53491   1.54188   1.54902
 Alpha virt. eigenvalues --    1.55533   1.61706   1.61860   1.71091   1.75533
 Alpha virt. eigenvalues --    1.77187   1.77900   1.78093   1.78556   1.90452
 Alpha virt. eigenvalues --    1.90581   1.91993   1.94114   2.05490   2.07245
 Alpha virt. eigenvalues --    2.09642   2.09838   2.11555   2.13338   2.34425
 Alpha virt. eigenvalues --    2.37859   2.39429   2.42326   2.51915   2.52573
 Alpha virt. eigenvalues --    2.53309   2.64783   2.65906   2.68535   2.92059
 Alpha virt. eigenvalues --    2.93059   3.04947   3.47501
  Beta  occ. eigenvalues --  -10.44803 -10.44800 -10.42125 -10.42121 -10.42083
  Beta  occ. eigenvalues --  -10.42078  -1.09242  -0.97801  -0.97194  -0.83100
  Beta  occ. eigenvalues --   -0.82761  -0.75251  -0.69110  -0.67567  -0.65485
  Beta  occ. eigenvalues --   -0.64587  -0.58893  -0.57437  -0.57158  -0.48239
  Beta virt. eigenvalues --   -0.42592  -0.22236  -0.21835  -0.11917  -0.07689
  Beta virt. eigenvalues --   -0.06918  -0.06057  -0.03382  -0.03070  -0.00476
  Beta virt. eigenvalues --    0.07985   0.08240   0.08895   0.09211   0.14458
  Beta virt. eigenvalues --    0.19681   0.20739   0.21052   0.23140   0.25374
  Beta virt. eigenvalues --    0.27072   0.29487   0.29810   0.32690   0.32728
  Beta virt. eigenvalues --    0.33877   0.39553   0.39610   0.44078   0.44705
  Beta virt. eigenvalues --    0.47263   0.47305   0.48081   0.51497   0.51614
  Beta virt. eigenvalues --    0.53628   0.53752   0.56236   0.56672   0.63137
  Beta virt. eigenvalues --    0.69191   0.81215   0.81422   0.93131   1.01528
  Beta virt. eigenvalues --    1.02363   1.03115   1.06670   1.07234   1.08491
  Beta virt. eigenvalues --    1.08831   1.32591   1.42679   1.42935   1.46717
  Beta virt. eigenvalues --    1.51786   1.53473   1.54103   1.54195   1.54311
  Beta virt. eigenvalues --    1.55029   1.55971   1.61942   1.62534   1.71767
  Beta virt. eigenvalues --    1.76780   1.77476   1.78146   1.78660   1.78693
  Beta virt. eigenvalues --    1.90463   1.92249   1.92332   1.94665   2.07652
  Beta virt. eigenvalues --    2.08031   2.09905   2.10156   2.13316   2.13803
  Beta virt. eigenvalues --    2.35580   2.39158   2.39668   2.43817   2.52154
  Beta virt. eigenvalues --    2.52684   2.53329   2.65157   2.66007   2.69308
  Beta virt. eigenvalues --    2.92408   2.93137   3.05184   3.47758
     Alpha Molecular Orbital Coefficients:
                           1         2         3         4         5
                           O         O         O         O         O
     Eigenvalues --   -10.45466 -10.45461 -10.42171 -10.42168 -10.42131
   1 1   C  1S         -0.00451   0.00482   0.49823   0.49805  -0.48974
   2        2S          0.00228  -0.00277   0.02328   0.02195  -0.02641
   3        3S         -0.01577   0.00933  -0.00314  -0.01417   0.02496
   4        4PX         0.00123  -0.00149   0.00021   0.00011  -0.00018
   5        4PY         0.00084  -0.00113   0.00104   0.00145   0.00100
   6        4PZ        -0.00003   0.00005  -0.00010  -0.00015  -0.00012
   7        5PX         0.00311   0.00291  -0.00073  -0.00180   0.00478
   8        5PY         0.00550   0.00054   0.00536  -0.00053   0.00255
   9        5PZ        -0.00045   0.00008  -0.00061  -0.00003  -0.00005
  10        6D 0       -0.00091   0.00066  -0.00054  -0.00076   0.00181
  11        6D+1        0.00003   0.00002   0.00008   0.00012  -0.00015
  12        6D-1       -0.00010   0.00004  -0.00004  -0.00006   0.00039
  13        6D+2        0.00042  -0.00046   0.00062   0.00082   0.00037
  14        6D-2        0.00064  -0.00085  -0.00006  -0.00014   0.00021
  15 2   C  1S          0.00451   0.00482   0.49026   0.49050   0.49772
  16        2S         -0.00228  -0.00277   0.02286   0.02156   0.02679
  17        3S          0.01577   0.00933  -0.00273  -0.01376  -0.02501
  18        4PX        -0.00126  -0.00154   0.00025   0.00017   0.00014
  19        4PY         0.00077   0.00105  -0.00104  -0.00146   0.00099
  20        4PZ        -0.00014  -0.00019   0.00012   0.00017  -0.00010
  21        5PX        -0.00335   0.00293  -0.00042  -0.00177  -0.00489
  22        5PY         0.00533  -0.00039  -0.00542   0.00049   0.00220
  23        5PZ        -0.00073   0.00018   0.00057  -0.00013  -0.00047
  24        6D 0        0.00090   0.00065  -0.00052  -0.00074  -0.00182
  25        6D+1       -0.00016  -0.00016   0.00006   0.00007   0.00011
  26        6D-1        0.00015   0.00010  -0.00002  -0.00004  -0.00038
  27        6D+2       -0.00048  -0.00054   0.00062   0.00081  -0.00038
  28        6D-2        0.00058   0.00079   0.00013   0.00023   0.00020
  29 3   C  1S          0.69856   0.69866   0.00004  -0.00589  -0.00537
  30        2S          0.03537   0.03390   0.00003  -0.00451  -0.00385
  31        3S         -0.02008  -0.02934  -0.00018   0.01329   0.02225
  32        4PX        -0.00000   0.00000   0.00189   0.00000   0.00004
  33        4PY         0.00017  -0.00017   0.00006  -0.00108  -0.00098
  34        4PZ        -0.00002   0.00002   0.00008   0.00012   0.00011
  35        5PX         0.00010   0.00009   0.00888  -0.00005   0.00008
  36        5PY        -0.00453  -0.00417   0.00024   0.00308  -0.00022
  37        5PZ         0.00049   0.00045   0.00039  -0.00033   0.00003
  38        6D 0       -0.00152  -0.00156  -0.00002   0.00098   0.00134
  39        6D+1        0.00011   0.00011  -0.00011  -0.00011  -0.00013
  40        6D-1       -0.00032  -0.00034   0.00004   0.00011   0.00020
  41        6D+2       -0.00026  -0.00036  -0.00004  -0.00067  -0.00045
  42        6D-2       -0.00000  -0.00000   0.00098  -0.00005  -0.00003
  43 4   C  1S          0.00451   0.00482  -0.49823   0.49805   0.48974
  44        2S         -0.00228  -0.00277  -0.02328   0.02195   0.02641
  45        3S          0.01577   0.00933   0.00314  -0.01417  -0.02496
  46        4PX         0.00123   0.00149   0.00021  -0.00011  -0.00018
  47        4PY         0.00084   0.00113   0.00104  -0.00145   0.00100
  48        4PZ        -0.00003  -0.00005  -0.00010   0.00015  -0.00012
  49        5PX         0.00311  -0.00291  -0.00073   0.00180   0.00478
  50        5PY         0.00550  -0.00054   0.00536   0.00053   0.00255
  51        5PZ        -0.00045  -0.00008  -0.00061   0.00003  -0.00005
  52        6D 0        0.00091   0.00066   0.00054  -0.00076  -0.00181
  53        6D+1       -0.00003   0.00002  -0.00008   0.00012   0.00015
  54        6D-1        0.00010   0.00004   0.00004  -0.00006  -0.00039
  55        6D+2       -0.00042  -0.00046  -0.00062   0.00082  -0.00037
  56        6D-2       -0.00064  -0.00085   0.00006  -0.00014  -0.00021
  57 5   C  1S         -0.00451   0.00482  -0.49026   0.49050  -0.49772
  58        2S          0.00228  -0.00277  -0.02286   0.02156  -0.02679
  59        3S         -0.01577   0.00933   0.00273  -0.01376   0.02501
  60        4PX        -0.00126   0.00154   0.00025  -0.00017   0.00014
  61        4PY         0.00077  -0.00105  -0.00104   0.00146   0.00099
  62        4PZ        -0.00014   0.00019   0.00012  -0.00017  -0.00010
  63        5PX        -0.00335  -0.00293  -0.00042   0.00177  -0.00489
  64        5PY         0.00533   0.00039  -0.00542  -0.00049   0.00220
  65        5PZ        -0.00073  -0.00018   0.00057   0.00013  -0.00047
  66        6D 0       -0.00090   0.00065   0.00052  -0.00074   0.00182
  67        6D+1        0.00016  -0.00016  -0.00006   0.00007  -0.00011
  68        6D-1       -0.00015   0.00010   0.00002  -0.00004   0.00038
  69        6D+2        0.00048  -0.00054  -0.00062   0.00081   0.00038
  70        6D-2       -0.00058   0.00079  -0.00013   0.00023  -0.00020
  71 6   C  1S         -0.69856   0.69866  -0.00004  -0.00589   0.00537
  72        2S         -0.03537   0.03390  -0.00003  -0.00451   0.00385
  73        3S          0.02008  -0.02934   0.00018   0.01329  -0.02225
  74        4PX        -0.00000  -0.00000   0.00189  -0.00000   0.00004
  75        4PY         0.00017   0.00017   0.00006   0.00108  -0.00098
  76        4PZ        -0.00002  -0.00002   0.00008  -0.00012   0.00011
  77        5PX         0.00010  -0.00009   0.00888   0.00005   0.00008
  78        5PY        -0.00453   0.00417   0.00024  -0.00308  -0.00022
  79        5PZ         0.00049  -0.00045   0.00039   0.00033   0.00003
  80        6D 0        0.00152  -0.00156   0.00002   0.00098  -0.00134
  81        6D+1       -0.00011   0.00011   0.00011  -0.00011   0.00013
  82        6D-1        0.00032  -0.00034  -0.00004   0.00011  -0.00020
  83        6D+2        0.00026  -0.00036   0.00004  -0.00067   0.00045
  84        6D-2        0.00000  -0.00000  -0.00098  -0.00005   0.00003
  85 7   H  1S          0.00047   0.00028  -0.00321  -0.00234   0.00255
  86        2S          0.00191  -0.00044   0.00119   0.00298  -0.00387
  87        3PX        -0.00059   0.00028  -0.00127  -0.00121   0.00129
  88        3PY        -0.00037   0.00005   0.00020   0.00051  -0.00118
  89        3PZ         0.00001   0.00001  -0.00008  -0.00011   0.00019
  90 8   H  1S         -0.00047   0.00028  -0.00317  -0.00229  -0.00260
  91        2S         -0.00191  -0.00044   0.00112   0.00293   0.00389
  92        3PX         0.00061   0.00028  -0.00123  -0.00117  -0.00125
  93        3PY        -0.00034  -0.00004  -0.00025  -0.00056  -0.00125
  94        3PZ         0.00007   0.00002  -0.00003   0.00001   0.00008
  95 9   H  1S         -0.00411  -0.00360   0.00000   0.00044  -0.00059
  96        2S          0.00357   0.00467   0.00002  -0.00074  -0.00277
  97        3PX         0.00005   0.00005  -0.00086  -0.00001  -0.00002
  98        3PY        -0.00206  -0.00207  -0.00003   0.00035   0.00053
  99        3PZ         0.00022   0.00023  -0.00004  -0.00004  -0.00006
 100 10  H  1S         -0.00047   0.00028   0.00321  -0.00234  -0.00255
 101        2S         -0.00191  -0.00044  -0.00119   0.00298   0.00387
 102        3PX        -0.00059  -0.00028  -0.00127   0.00121   0.00129
 103        3PY        -0.00037  -0.00005   0.00020  -0.00051  -0.00118
 104        3PZ         0.00001  -0.00001  -0.00008   0.00011   0.00019
 105 11  H  1S          0.00047   0.00028   0.00317  -0.00229   0.00260
 106        2S          0.00191  -0.00044  -0.00112   0.00293  -0.00389
 107        3PX         0.00061  -0.00028  -0.00123   0.00117  -0.00125
 108        3PY        -0.00034   0.00004  -0.00025   0.00056  -0.00125
 109        3PZ         0.00007  -0.00002  -0.00003  -0.00001   0.00008
 110 12  H  1S          0.00411  -0.00360  -0.00000   0.00044   0.00059
 111        2S         -0.00357   0.00467  -0.00002  -0.00074   0.00277
 112        3PX         0.00005  -0.00005  -0.00086   0.00001  -0.00002
 113        3PY        -0.00206   0.00207  -0.00003  -0.00035   0.00053
 114        3PZ         0.00022  -0.00023  -0.00004   0.00004  -0.00006
                           6         7         8         9        10
                           O         O         O         O         O
     Eigenvalues --   -10.42125  -1.10354  -0.99742  -0.97442  -0.83729
   1 1   C  1S         -0.49006  -0.11574   0.08170  -0.14661  -0.11377
   2        2S         -0.02572   0.22052  -0.16081   0.29080   0.23530
   3        3S          0.02695   0.03683  -0.01610   0.06479   0.07789
   4        4PX         0.00013   0.06893  -0.06863   0.00706   0.01927
   5        4PY         0.00118  -0.02699  -0.07844  -0.06066   0.12023
   6        4PZ        -0.00012   0.00613   0.00526   0.00687  -0.01207
   7        5PX         0.00342   0.01305  -0.01375   0.00363   0.02777
   8        5PY        -0.00321  -0.00620  -0.02584  -0.01946   0.02092
   9        5PZ         0.00051   0.00128   0.00214   0.00227  -0.00096
  10        6D 0        0.00164  -0.00754   0.00313  -0.00516  -0.00124
  11        6D+1       -0.00014   0.00037   0.00041  -0.00007  -0.00016
  12        6D-1        0.00038  -0.00136  -0.00067  -0.00178   0.00033
  13        6D+2        0.00050  -0.00033  -0.00748  -0.00792   0.00349
  14        6D-2        0.00024   0.00213  -0.00933   0.00115   0.00390
  15 2   C  1S          0.49763  -0.11574  -0.08168  -0.14662   0.11378
  16        2S          0.02605   0.22052   0.16077   0.29082  -0.23531
  17        3S         -0.02716   0.03683   0.01609   0.06479  -0.07789
  18        4PX        -0.00018   0.06765   0.07200   0.00439  -0.02454
  19        4PY         0.00115   0.03065  -0.07468   0.06095   0.11904
  20        4PZ        -0.00013  -0.00015   0.01141  -0.00637  -0.01398
  21        5PX        -0.00330   0.01276   0.01487   0.00277  -0.02866
  22        5PY        -0.00338   0.00689  -0.02507   0.01963   0.01940
  23        5PZ         0.00021  -0.00015   0.00340  -0.00199  -0.00343
  24        6D 0       -0.00166  -0.00751  -0.00299  -0.00513   0.00118
  25        6D+1        0.00009   0.00083   0.00155   0.00026  -0.00066
  26        6D-1       -0.00036  -0.00153  -0.00006  -0.00191  -0.00003
  27        6D+2       -0.00051  -0.00012   0.00835  -0.00777  -0.00386
  28        6D-2        0.00022  -0.00202  -0.00850  -0.00183   0.00352
  29 3   C  1S         -0.00004  -0.12848  -0.17425  -0.00001  -0.00001
  30        2S         -0.00003   0.25051   0.35129   0.00003   0.00001
  31        3S          0.00010   0.05871   0.09902   0.00001   0.00000
  32        4PX         0.00247  -0.00164  -0.00085  -0.13275   0.23779
  33        4PY         0.00006   0.07464   0.03892  -0.00356   0.00637
  34        4PZ         0.00011  -0.00813  -0.00424  -0.00581   0.01041
  35        5PX        -0.00263  -0.00053  -0.00048  -0.03985   0.06495
  36        5PY        -0.00005   0.02386   0.02172  -0.00107   0.00174
  37        5PZ        -0.00012  -0.00260  -0.00236  -0.00174   0.00284
  38        6D 0       -0.00000  -0.00570  -0.00322   0.00011  -0.00009
  39        6D+1       -0.00013   0.00055   0.00052   0.00149  -0.00116
  40        6D-1        0.00005  -0.00084   0.00010  -0.00056   0.00043
  41        6D+2       -0.00006   0.00218   0.00638   0.00066  -0.00052
  42        6D-2        0.00121   0.00015   0.00034  -0.01358   0.01055
  43 4   C  1S         -0.49006  -0.11574  -0.08170   0.14661  -0.11377
  44        2S         -0.02572   0.22052   0.16081  -0.29080   0.23530
  45        3S          0.02695   0.03683   0.01610  -0.06479   0.07789
  46        4PX        -0.00013  -0.06893  -0.06863   0.00706  -0.01927
  47        4PY        -0.00118   0.02699  -0.07844  -0.06066  -0.12023
  48        4PZ         0.00012  -0.00613   0.00526   0.00687   0.01207
  49        5PX        -0.00342  -0.01305  -0.01375   0.00363  -0.02777
  50        5PY         0.00321   0.00620  -0.02584  -0.01946  -0.02092
  51        5PZ        -0.00051  -0.00128   0.00214   0.00227   0.00096
  52        6D 0        0.00164  -0.00754  -0.00313   0.00516  -0.00124
  53        6D+1       -0.00014   0.00037  -0.00041   0.00007  -0.00016
  54        6D-1        0.00038  -0.00136   0.00067   0.00178   0.00033
  55        6D+2        0.00050  -0.00033   0.00748   0.00792   0.00349
  56        6D-2        0.00024   0.00213   0.00933  -0.00115   0.00390
  57 5   C  1S          0.49763  -0.11574   0.08168   0.14662   0.11378
  58        2S          0.02605   0.22052  -0.16077  -0.29082  -0.23531
  59        3S         -0.02716   0.03683  -0.01609  -0.06479  -0.07789
  60        4PX         0.00018  -0.06765   0.07200   0.00439   0.02454
  61        4PY        -0.00115  -0.03065  -0.07468   0.06095  -0.11904
  62        4PZ         0.00013   0.00015   0.01141  -0.00637   0.01398
  63        5PX         0.00330  -0.01276   0.01487   0.00277   0.02866
  64        5PY         0.00338  -0.00689  -0.02507   0.01963  -0.01940
  65        5PZ        -0.00021   0.00015   0.00340  -0.00199   0.00343
  66        6D 0       -0.00166  -0.00751   0.00299   0.00513   0.00118
  67        6D+1        0.00009   0.00083  -0.00155  -0.00026  -0.00066
  68        6D-1       -0.00036  -0.00153   0.00006   0.00191  -0.00003
  69        6D+2       -0.00051  -0.00012  -0.00835   0.00777  -0.00386
  70        6D-2        0.00022  -0.00202   0.00850   0.00183   0.00352
  71 6   C  1S         -0.00004  -0.12848   0.17425   0.00001  -0.00001
  72        2S         -0.00003   0.25051  -0.35129  -0.00003   0.00001
  73        3S          0.00010   0.05871  -0.09902  -0.00001   0.00000
  74        4PX        -0.00247   0.00164  -0.00085  -0.13275  -0.23779
  75        4PY        -0.00006  -0.07464   0.03892  -0.00356  -0.00637
  76        4PZ        -0.00011   0.00813  -0.00424  -0.00581  -0.01041
  77        5PX         0.00263   0.00053  -0.00048  -0.03985  -0.06495
  78        5PY         0.00005  -0.02386   0.02172  -0.00107  -0.00174
  79        5PZ         0.00012   0.00260  -0.00236  -0.00174  -0.00284
  80        6D 0       -0.00000  -0.00570   0.00322  -0.00011  -0.00009
  81        6D+1       -0.00013   0.00055  -0.00052  -0.00149  -0.00116
  82        6D-1        0.00005  -0.00084  -0.00010   0.00056   0.00043
  83        6D+2       -0.00006   0.00218  -0.00638  -0.00066  -0.00052
  84        6D-2        0.00121   0.00015  -0.00034   0.01358   0.01055
  85 7   H  1S          0.00274   0.03656  -0.04100   0.07903   0.11363
  86        2S         -0.00356   0.00684  -0.00412   0.00984   0.02394
  87        3PX         0.00135   0.00635  -0.00648   0.00950   0.01084
  88        3PY        -0.00088  -0.00326   0.00142  -0.00619  -0.00338
  89        3PZ         0.00016   0.00065  -0.00046   0.00111   0.00087
  90 8   H  1S         -0.00277   0.03656   0.04099   0.07903  -0.11364
  91        2S          0.00361   0.00684   0.00412   0.00984  -0.02394
  92        3PX        -0.00133   0.00620   0.00641   0.00922  -0.01068
  93        3PY        -0.00096   0.00360   0.00177   0.00669  -0.00396
  94        3PZ         0.00004  -0.00010   0.00011  -0.00029  -0.00007
  95 9   H  1S          0.00000   0.04384   0.09311   0.00001   0.00001
  96        2S         -0.00001   0.00858   0.01033   0.00000   0.00000
  97        3PX        -0.00026  -0.00018  -0.00030  -0.00219   0.00428
  98        3PY        -0.00000   0.00810   0.01350  -0.00006   0.00012
  99        3PZ        -0.00001  -0.00088  -0.00147  -0.00010   0.00019
 100 10  H  1S          0.00274   0.03656   0.04100  -0.07903   0.11363
 101        2S         -0.00356   0.00684   0.00412  -0.00984   0.02394
 102        3PX        -0.00135  -0.00635  -0.00648   0.00950  -0.01084
 103        3PY         0.00088   0.00326   0.00142  -0.00619   0.00338
 104        3PZ        -0.00016  -0.00065  -0.00046   0.00111  -0.00087
 105 11  H  1S         -0.00277   0.03656  -0.04099  -0.07903  -0.11364
 106        2S          0.00361   0.00684  -0.00412  -0.00984  -0.02394
 107        3PX         0.00133  -0.00620   0.00641   0.00922   0.01068
 108        3PY         0.00096  -0.00360   0.00177   0.00669   0.00396
 109        3PZ        -0.00004   0.00010   0.00011  -0.00029   0.00007
 110 12  H  1S          0.00000   0.04384  -0.09311  -0.00001   0.00001
 111        2S         -0.00001   0.00858  -0.01033  -0.00000   0.00000
 112        3PX         0.00026   0.00018  -0.00030  -0.00219  -0.00428
 113        3PY         0.00000  -0.00810   0.01350  -0.00006  -0.00012
 114        3PZ         0.00001   0.00088  -0.00147  -0.00010  -0.00019
                          11        12        13        14        15
                           O         O         O         O         O
     Eigenvalues --    -0.83582  -0.75505  -0.69575  -0.68037  -0.65898
   1 1   C  1S          0.07105   0.02629  -0.00531  -0.07645  -0.02472
   2        2S         -0.14678  -0.05609   0.01076   0.16441   0.04461
   3        3S         -0.05259  -0.05012   0.00835   0.39219   0.14231
   4        4PX         0.09646   0.18193  -0.14553  -0.03543  -0.20228
   5        4PY         0.15656  -0.07084  -0.23841   0.05556   0.04330
   6        4PZ        -0.01238   0.01613   0.01892  -0.00765  -0.01411
   7        5PX         0.00930   0.06007  -0.04004   0.10806   0.03315
   8        5PY         0.04716  -0.02766  -0.06808  -0.07214   0.04527
   9        5PZ        -0.00465   0.00579   0.00547   0.01282  -0.00333
  10        6D 0        0.00094  -0.00042  -0.00002  -0.00004  -0.00004
  11        6D+1       -0.00038   0.00088   0.00024   0.00122   0.00098
  12        6D-1        0.00115   0.00028  -0.00067   0.00079  -0.00124
  13        6D+2        0.00652   0.00565  -0.00435   0.01037  -0.00623
  14        6D-2        0.00556  -0.00542  -0.00402  -0.00685  -0.01167
  15 2   C  1S          0.07103   0.02629  -0.00531   0.07645   0.02472
  16        2S         -0.14675  -0.05610   0.01076  -0.16442  -0.04462
  17        3S         -0.05258  -0.05012   0.00833  -0.39219  -0.14232
  18        4PX         0.10325   0.17858  -0.15586   0.03293   0.20010
  19        4PY        -0.15121   0.08051   0.23032   0.05739   0.05405
  20        4PZ         0.02112  -0.00034  -0.03211  -0.00465   0.00352
  21        5PX         0.01137   0.05878  -0.04300  -0.10475  -0.03512
  22        5PY        -0.04661   0.03085   0.06586  -0.07786   0.04343
  23        5PZ         0.00556  -0.00058  -0.00911   0.00351  -0.00632
  24        6D 0        0.00103  -0.00052  -0.00008   0.00016   0.00022
  25        6D+1        0.00077  -0.00037  -0.00060   0.00039   0.00151
  26        6D-1        0.00073   0.00074  -0.00036  -0.00139   0.00031
  27        6D+2        0.00703   0.00510  -0.00472  -0.00965   0.00734
  28        6D-2       -0.00491   0.00595   0.00358  -0.00783  -0.01101
  29 3   C  1S         -0.13056   0.00890  -0.00000  -0.05931  -0.05003
  30        2S          0.27722  -0.01793   0.00000   0.12054   0.12599
  31        3S          0.10974  -0.02905   0.00001   0.35695   0.26062
  32        4PX         0.00178  -0.00459   0.29258   0.00575  -0.00521
  33        4PY        -0.08129   0.20796   0.00785  -0.26040   0.23631
  34        4PZ         0.00885  -0.02264   0.01281   0.02835  -0.02572
  35        5PX        -0.00013  -0.00174   0.08815  -0.00143  -0.00327
  36        5PY         0.00581   0.07890   0.00237   0.06508   0.14800
  37        5PZ        -0.00063  -0.00859   0.00386  -0.00708  -0.01611
  38        6D 0        0.00153  -0.00057  -0.00005   0.00128   0.00154
  39        6D+1       -0.00009  -0.00023  -0.00066  -0.00066  -0.00029
  40        6D-1        0.00037  -0.00086   0.00025  -0.00128  -0.00015
  41        6D+2        0.00072  -0.00678  -0.00029  -0.01367  -0.00397
  42        6D-2        0.00002  -0.00033   0.00602  -0.00068  -0.00021
  43 4   C  1S          0.07105   0.02629   0.00531   0.07645   0.02472
  44        2S         -0.14678  -0.05609  -0.01076  -0.16441  -0.04461
  45        3S         -0.05259  -0.05012  -0.00835  -0.39219  -0.14231
  46        4PX        -0.09646  -0.18193  -0.14553  -0.03543  -0.20228
  47        4PY        -0.15656   0.07084  -0.23841   0.05556   0.04330
  48        4PZ         0.01238  -0.01613   0.01892  -0.00765  -0.01411
  49        5PX        -0.00930  -0.06007  -0.04004   0.10806   0.03315
  50        5PY        -0.04716   0.02766  -0.06808  -0.07214   0.04527
  51        5PZ         0.00465  -0.00579   0.00547   0.01282  -0.00333
  52        6D 0        0.00094  -0.00042   0.00002   0.00004   0.00004
  53        6D+1       -0.00038   0.00088  -0.00024  -0.00122  -0.00098
  54        6D-1        0.00115   0.00028   0.00067  -0.00079   0.00124
  55        6D+2        0.00652   0.00565   0.00435  -0.01037   0.00623
  56        6D-2        0.00556  -0.00542   0.00402   0.00685   0.01167
  57 5   C  1S          0.07103   0.02629   0.00531  -0.07645  -0.02472
  58        2S         -0.14675  -0.05610  -0.01076   0.16442   0.04462
  59        3S         -0.05258  -0.05012  -0.00833   0.39219   0.14232
  60        4PX        -0.10325  -0.17858  -0.15586   0.03293   0.20010
  61        4PY         0.15121  -0.08051   0.23032   0.05739   0.05405
  62        4PZ        -0.02112   0.00034  -0.03211  -0.00465   0.00352
  63        5PX        -0.01137  -0.05878  -0.04300  -0.10475  -0.03512
  64        5PY         0.04661  -0.03085   0.06586  -0.07786   0.04343
  65        5PZ        -0.00556   0.00058  -0.00911   0.00351  -0.00632
  66        6D 0        0.00103  -0.00052   0.00008  -0.00016  -0.00022
  67        6D+1        0.00077  -0.00037   0.00060  -0.00039  -0.00151
  68        6D-1        0.00073   0.00074   0.00036   0.00139  -0.00031
  69        6D+2        0.00703   0.00510   0.00472   0.00965  -0.00734
  70        6D-2       -0.00491   0.00595  -0.00358   0.00783   0.01101
  71 6   C  1S         -0.13056   0.00890   0.00000   0.05931   0.05003
  72        2S          0.27722  -0.01793  -0.00000  -0.12054  -0.12599
  73        3S          0.10974  -0.02905  -0.00001  -0.35695  -0.26062
  74        4PX        -0.00178   0.00459   0.29258   0.00575  -0.00521
  75        4PY         0.08129  -0.20796   0.00785  -0.26040   0.23631
  76        4PZ        -0.00885   0.02264   0.01281   0.02835  -0.02572
  77        5PX         0.00013   0.00174   0.08815  -0.00143  -0.00327
  78        5PY        -0.00581  -0.07890   0.00237   0.06508   0.14800
  79        5PZ         0.00063   0.00859   0.00386  -0.00708  -0.01611
  80        6D 0        0.00153  -0.00057   0.00005  -0.00128  -0.00154
  81        6D+1       -0.00009  -0.00023   0.00066   0.00066   0.00029
  82        6D-1        0.00037  -0.00086  -0.00025   0.00128   0.00015
  83        6D+2        0.00072  -0.00678   0.00029   0.01367   0.00397
  84        6D-2        0.00002  -0.00033  -0.00602   0.00068   0.00021
  85 7   H  1S         -0.06339  -0.13815   0.01520   0.13183   0.18101
  86        2S         -0.01564  -0.01124   0.00426   0.04927   0.05959
  87        3PX        -0.00385  -0.00809  -0.00205   0.00692   0.00699
  88        3PY         0.00606   0.00475  -0.00563  -0.00258  -0.00591
  89        3PZ        -0.00083  -0.00089   0.00051   0.00060   0.00096
  90 8   H  1S         -0.06338  -0.13815   0.01519  -0.13183  -0.18097
  91        2S         -0.01564  -0.01124   0.00425  -0.04927  -0.05958
  92        3PX        -0.00358  -0.00787  -0.00229  -0.00680  -0.00672
  93        3PY        -0.00626  -0.00518   0.00551  -0.00295  -0.00628
  94        3PZ         0.00051   0.00019  -0.00070   0.00000   0.00036
  95 9   H  1S          0.15019  -0.13250  -0.00000   0.26342  -0.11993
  96        2S          0.02645  -0.00766  -0.00000   0.08261  -0.02919
  97        3PX        -0.00031   0.00018   0.00605  -0.00030   0.00012
  98        3PY         0.01389  -0.00837   0.00016   0.01345  -0.00537
  99        3PZ        -0.00151   0.00091   0.00026  -0.00146   0.00058
 100 10  H  1S         -0.06339  -0.13815  -0.01520  -0.13183  -0.18101
 101        2S         -0.01564  -0.01124  -0.00426  -0.04927  -0.05959
 102        3PX         0.00385   0.00809  -0.00205   0.00692   0.00699
 103        3PY        -0.00606  -0.00475  -0.00563  -0.00258  -0.00591
 104        3PZ         0.00083   0.00089   0.00051   0.00060   0.00096
 105 11  H  1S         -0.06338  -0.13815  -0.01519   0.13183   0.18097
 106        2S         -0.01564  -0.01124  -0.00425   0.04927   0.05958
 107        3PX         0.00358   0.00787  -0.00229  -0.00680  -0.00672
 108        3PY         0.00626   0.00518   0.00551  -0.00295  -0.00628
 109        3PZ        -0.00051  -0.00019  -0.00070   0.00000   0.00036
 110 12  H  1S          0.15019  -0.13250   0.00000  -0.26342   0.11993
 111        2S          0.02645  -0.00766   0.00000  -0.08261   0.02919
 112        3PX         0.00031  -0.00018   0.00605  -0.00030   0.00012
 113        3PY        -0.01389   0.00837   0.00016   0.01345  -0.00537
 114        3PZ         0.00151  -0.00091   0.00026  -0.00146   0.00058
                          16        17        18        19        20
                           O         O         O         O         O
     Eigenvalues --    -0.64619  -0.62193  -0.57627  -0.57468  -0.52135
   1 1   C  1S         -0.01799   0.00000  -0.00008   0.00792   0.00000
   2        2S          0.05383  -0.00001  -0.00473  -0.00792  -0.00000
   3        3S          0.07157  -0.00001   0.03746  -0.06098  -0.00000
   4        4PX         0.21354  -0.01024  -0.00290   0.24217   0.00760
   5        4PY        -0.17937   0.02364   0.26273   0.00978  -0.01755
   6        4PZ         0.02933   0.21900  -0.02848   0.01025  -0.16271
   7        5PX         0.08882  -0.00477   0.01556   0.04455   0.00430
   8        5PY        -0.02092   0.01100   0.08093   0.01003  -0.00993
   9        5PZ         0.00641   0.10205  -0.00801   0.00100  -0.09208
  10        6D 0        0.00032   0.00178  -0.00034   0.00030   0.00137
  11        6D+1       -0.00005   0.01258   0.00081  -0.00219  -0.01350
  12        6D-1       -0.00073  -0.00395   0.00135   0.00051  -0.01308
  13        6D+2       -0.00621  -0.00015   0.01359  -0.00392   0.00205
  14        6D-2       -0.00246   0.00155  -0.00141   0.01834  -0.00084
  15 2   C  1S         -0.01798   0.00000  -0.00008  -0.00792  -0.00000
  16        2S          0.05381  -0.00000  -0.00473   0.00792   0.00000
  17        3S          0.07153  -0.00001   0.03748   0.06097   0.00000
  18        4PX         0.20542  -0.01025   0.00862  -0.24232  -0.00760
  19        4PY         0.19063   0.02359  -0.26257  -0.00314   0.01754
  20        4PZ        -0.01094   0.21900   0.02871  -0.01098   0.16266
  21        5PX         0.08778  -0.00477   0.01909  -0.04495  -0.00430
  22        5PY         0.02567   0.01100  -0.07999   0.00766   0.00993
  23        5PZ         0.00134   0.10204   0.00951  -0.00293   0.09205
  24        6D 0        0.00028   0.00012  -0.00037  -0.00060   0.00345
  25        6D+1       -0.00052   0.01243   0.00035  -0.00187   0.01394
  26        6D-1       -0.00056   0.00474   0.00152   0.00101  -0.01221
  27        6D+2       -0.00642  -0.00109   0.01339   0.00211   0.00069
  28        6D-2        0.00183   0.00112   0.00274   0.01864   0.00209
  29 3   C  1S         -0.00001   0.00000  -0.00028   0.00000  -0.00000
  30        2S          0.00001   0.00000   0.01337  -0.00000   0.00000
  31        3S          0.00003  -0.00001  -0.06890   0.00001   0.00000
  32        4PX        -0.06546  -0.01242  -0.00512   0.26183  -0.01790
  33        4PY        -0.00173   0.02872   0.23392   0.00699   0.04139
  34        4PZ        -0.00284   0.26635  -0.02546   0.01145   0.38386
  35        5PX         0.06731  -0.00638  -0.00076   0.09490  -0.01098
  36        5PY         0.00182   0.01471   0.03501   0.00254   0.02539
  37        5PZ         0.00296   0.13650  -0.00381   0.00415   0.23545
  38        6D 0        0.00012  -0.00254   0.00054  -0.00010  -0.00190
  39        6D+1        0.00159  -0.00023   0.00084  -0.00135  -0.00017
  40        6D-1       -0.00059   0.01330   0.00250   0.00050   0.00994
  41        6D+2        0.00071  -0.00144   0.02153  -0.00060  -0.00107
  42        6D-2       -0.01451  -0.00066   0.00105   0.01227  -0.00049
  43 4   C  1S          0.01799  -0.00000  -0.00008   0.00792   0.00000
  44        2S         -0.05383   0.00001  -0.00473  -0.00792  -0.00000
  45        3S         -0.07157   0.00001   0.03746  -0.06098  -0.00000
  46        4PX         0.21354  -0.01024   0.00290  -0.24217  -0.00760
  47        4PY        -0.17937   0.02364  -0.26273  -0.00978   0.01755
  48        4PZ         0.02933   0.21900   0.02848  -0.01025   0.16271
  49        5PX         0.08882  -0.00477  -0.01556  -0.04455  -0.00430
  50        5PY        -0.02092   0.01100  -0.08093  -0.01003   0.00993
  51        5PZ         0.00641   0.10205   0.00801  -0.00100   0.09208
  52        6D 0       -0.00032  -0.00178  -0.00034   0.00030   0.00137
  53        6D+1        0.00005  -0.01258   0.00081  -0.00219  -0.01350
  54        6D-1        0.00073   0.00395   0.00135   0.00051  -0.01308
  55        6D+2        0.00621   0.00015   0.01359  -0.00392   0.00205
  56        6D-2        0.00246  -0.00155  -0.00141   0.01834  -0.00084
  57 5   C  1S          0.01798  -0.00000  -0.00008  -0.00792  -0.00000
  58        2S         -0.05381   0.00000  -0.00473   0.00792   0.00000
  59        3S         -0.07153   0.00001   0.03748   0.06097   0.00000
  60        4PX         0.20542  -0.01025  -0.00862   0.24232   0.00760
  61        4PY         0.19063   0.02359   0.26257   0.00314  -0.01754
  62        4PZ        -0.01094   0.21900  -0.02871   0.01098  -0.16266
  63        5PX         0.08778  -0.00477  -0.01909   0.04495   0.00430
  64        5PY         0.02567   0.01100   0.07999  -0.00766  -0.00993
  65        5PZ         0.00134   0.10204  -0.00951   0.00293  -0.09205
  66        6D 0       -0.00028  -0.00012  -0.00037  -0.00060   0.00345
  67        6D+1        0.00052  -0.01243   0.00035  -0.00187   0.01394
  68        6D-1        0.00056  -0.00474   0.00152   0.00101  -0.01221
  69        6D+2        0.00642   0.00109   0.01339   0.00211   0.00069
  70        6D-2       -0.00183  -0.00112   0.00274   0.01864   0.00209
  71 6   C  1S          0.00001  -0.00000  -0.00028   0.00000  -0.00000
  72        2S         -0.00001  -0.00000   0.01337  -0.00000   0.00000
  73        3S         -0.00003   0.00001  -0.06890   0.00001   0.00000
  74        4PX        -0.06546  -0.01242   0.00512  -0.26183   0.01790
  75        4PY        -0.00173   0.02872  -0.23392  -0.00699  -0.04139
  76        4PZ        -0.00284   0.26635   0.02546  -0.01145  -0.38386
  77        5PX         0.06731  -0.00638   0.00076  -0.09490   0.01098
  78        5PY         0.00182   0.01471  -0.03501  -0.00254  -0.02539
  79        5PZ         0.00296   0.13650   0.00381  -0.00415  -0.23545
  80        6D 0       -0.00012   0.00254   0.00054  -0.00010  -0.00190
  81        6D+1       -0.00159   0.00023   0.00084  -0.00135  -0.00017
  82        6D-1        0.00059  -0.01330   0.00250   0.00050   0.00994
  83        6D+2       -0.00071   0.00144   0.02153  -0.00060  -0.00107
  84        6D-2        0.01451   0.00066   0.00105   0.01227  -0.00049
  85 7   H  1S         -0.19096   0.00002   0.12143  -0.21026  -0.00001
  86        2S         -0.05906   0.00001   0.04883  -0.08965  -0.00000
  87        3PX        -0.00893  -0.00022   0.00633  -0.00587   0.00020
  88        3PY         0.00256   0.00051   0.00197   0.00577  -0.00047
  89        3PZ        -0.00069   0.00470   0.00008  -0.00090  -0.00436
  90 8   H  1S         -0.19100   0.00002   0.12149   0.21023   0.00000
  91        2S         -0.05907   0.00001   0.04886   0.08964   0.00000
  92        3PX        -0.00881  -0.00022   0.00641   0.00561  -0.00020
  93        3PY        -0.00304   0.00051  -0.00163   0.00607   0.00047
  94        3PZ        -0.00008   0.00470   0.00047  -0.00039   0.00436
  95 9   H  1S         -0.00001   0.00000  -0.22984   0.00003   0.00000
  96        2S         -0.00000   0.00000  -0.09886   0.00001   0.00000
  97        3PX        -0.00231  -0.00025   0.00018   0.00504  -0.00046
  98        3PY        -0.00006   0.00057  -0.00805   0.00014   0.00106
  99        3PZ        -0.00010   0.00527   0.00088   0.00022   0.00983
 100 10  H  1S          0.19096  -0.00002   0.12143  -0.21026  -0.00001
 101        2S          0.05906  -0.00001   0.04883  -0.08965  -0.00000
 102        3PX        -0.00893  -0.00022  -0.00633   0.00587  -0.00020
 103        3PY         0.00256   0.00051  -0.00197  -0.00577   0.00047
 104        3PZ        -0.00069   0.00470  -0.00008   0.00090   0.00436
 105 11  H  1S          0.19100  -0.00002   0.12149   0.21023   0.00000
 106        2S          0.05907  -0.00001   0.04886   0.08964   0.00000
 107        3PX        -0.00881  -0.00022  -0.00641  -0.00561   0.00020
 108        3PY        -0.00304   0.00051   0.00163  -0.00607  -0.00047
 109        3PZ        -0.00008   0.00470  -0.00047   0.00039  -0.00436
 110 12  H  1S          0.00001  -0.00000  -0.22984   0.00003   0.00000
 111        2S          0.00000  -0.00000  -0.09886   0.00001   0.00000
 112        3PX        -0.00231  -0.00025  -0.00018  -0.00504   0.00046
 113        3PY        -0.00006   0.00057   0.00805  -0.00014  -0.00106
 114        3PZ        -0.00010   0.00527  -0.00088  -0.00022  -0.00983
                          21        22        23        24        25
                           O         V         V         V         V
     Eigenvalues --    -0.48755  -0.25730  -0.23581  -0.12063  -0.08281
   1 1   C  1S         -0.00000  -0.00000   0.00000   0.04427   0.00000
   2        2S          0.00000   0.00000  -0.00001  -0.12109  -0.00000
   3        3S          0.00000  -0.00000   0.00001  -0.42576  -0.00002
   4        4PX        -0.01443   0.00967   0.01549   0.09292   0.01468
   5        4PY         0.03335  -0.02234  -0.03579  -0.04377  -0.03390
   6        4PZ         0.30917  -0.20719  -0.33187   0.00906  -0.31441
   7        5PX        -0.00916   0.01126   0.01940   0.22949   0.02568
   8        5PY         0.02116  -0.02602  -0.04482  -0.10272  -0.05932
   9        5PZ         0.19623  -0.24135  -0.41554   0.02179  -0.55007
  10        6D 0        0.00248  -0.00301   0.00316  -0.00522   0.00251
  11        6D+1        0.00400   0.01434  -0.00427   0.00315   0.01044
  12        6D-1       -0.01139   0.02210  -0.01851  -0.00051  -0.00874
  13        6D+2        0.00106  -0.00307   0.00221   0.01297   0.00047
  14        6D-2        0.00098   0.00050   0.00042  -0.01960   0.00155
  15 2   C  1S         -0.00000   0.00000  -0.00000   0.04427  -0.00000
  16        2S          0.00000  -0.00000   0.00001  -0.12109   0.00001
  17        3S          0.00001   0.00000  -0.00001  -0.42573   0.00003
  18        4PX        -0.01443   0.00967  -0.01549   0.09087  -0.01468
  19        4PY         0.03333  -0.02233   0.03579   0.04870   0.03390
  20        4PZ         0.30919  -0.20712   0.33191  -0.00101   0.31442
  21        5PX        -0.00916   0.01127  -0.01941   0.22468  -0.02569
  22        5PY         0.02116  -0.02601   0.04480   0.11491   0.05930
  23        5PZ         0.19624  -0.24127   0.41559  -0.00190   0.55008
  24        6D 0       -0.00191   0.00525   0.00385  -0.00555   0.00095
  25        6D+1        0.00361   0.01509   0.00490  -0.00130  -0.01013
  26        6D-1        0.01163  -0.02117  -0.01821   0.00114  -0.00939
  27        6D+2       -0.00143   0.00161   0.00176   0.01099   0.00149
  28        6D-2       -0.00016   0.00265   0.00140   0.02086  -0.00065
  29 3   C  1S          0.00000  -0.00000   0.00000   0.05242   0.00000
  30        2S         -0.00000   0.00000  -0.00000  -0.14326  -0.00000
  31        3S          0.00000   0.00000   0.00001  -0.57908  -0.00001
  32        4PX         0.00000  -0.01808   0.00000  -0.00269   0.01425
  33        4PY         0.00001   0.04178  -0.00001   0.12186  -0.03292
  34        4PZ         0.00003   0.38743  -0.00003  -0.01326  -0.30530
  35        5PX         0.00000  -0.02074   0.00000  -0.00617   0.02404
  36        5PY         0.00000   0.04793   0.00000   0.27963  -0.05554
  37        5PZ         0.00002   0.44449  -0.00004  -0.03044  -0.51516
  38        6D 0       -0.00173   0.00165  -0.00275  -0.00712  -0.00305
  39        6D+1       -0.02279   0.00015  -0.03614  -0.00042  -0.00027
  40        6D-1       -0.00072  -0.00863  -0.00114  -0.00404   0.01596
  41        6D+2        0.00113   0.00093   0.00179  -0.02426  -0.00173
  42        6D-2       -0.00243   0.00043  -0.00386  -0.00113  -0.00079
  43 4   C  1S         -0.00000   0.00000  -0.00000   0.04427   0.00000
  44        2S          0.00000  -0.00000   0.00001  -0.12109  -0.00000
  45        3S          0.00000   0.00000  -0.00001  -0.42576  -0.00002
  46        4PX         0.01443   0.00967   0.01549  -0.09292  -0.01468
  47        4PY        -0.03335  -0.02234  -0.03579   0.04377   0.03390
  48        4PZ        -0.30917  -0.20719  -0.33187  -0.00906   0.31441
  49        5PX         0.00916   0.01126   0.01940  -0.22949  -0.02568
  50        5PY        -0.02116  -0.02602  -0.04482   0.10272   0.05932
  51        5PZ        -0.19623  -0.24135  -0.41554  -0.02179   0.55007
  52        6D 0        0.00248   0.00301  -0.00316  -0.00522   0.00251
  53        6D+1        0.00400  -0.01434   0.00427   0.00315   0.01044
  54        6D-1       -0.01139  -0.02210   0.01851  -0.00051  -0.00874
  55        6D+2        0.00106   0.00307  -0.00221   0.01297   0.00047
  56        6D-2        0.00098  -0.00050  -0.00042  -0.01960   0.00155
  57 5   C  1S         -0.00000  -0.00000   0.00000   0.04427  -0.00000
  58        2S          0.00000   0.00000  -0.00001  -0.12109   0.00001
  59        3S          0.00001  -0.00000   0.00001  -0.42573   0.00003
  60        4PX         0.01443   0.00967  -0.01549  -0.09087   0.01468
  61        4PY        -0.03333  -0.02233   0.03579  -0.04870  -0.03390
  62        4PZ        -0.30919  -0.20712   0.33191   0.00101  -0.31442
  63        5PX         0.00916   0.01127  -0.01941  -0.22468   0.02569
  64        5PY        -0.02116  -0.02601   0.04480  -0.11491  -0.05930
  65        5PZ        -0.19624  -0.24127   0.41559   0.00190  -0.55008
  66        6D 0       -0.00191  -0.00525  -0.00385  -0.00555   0.00095
  67        6D+1        0.00361  -0.01509  -0.00490  -0.00130  -0.01013
  68        6D-1        0.01163   0.02117   0.01821   0.00114  -0.00939
  69        6D+2       -0.00143  -0.00161  -0.00176   0.01099   0.00149
  70        6D-2       -0.00016  -0.00265  -0.00140   0.02086  -0.00065
  71 6   C  1S          0.00000   0.00000  -0.00000   0.05242   0.00000
  72        2S         -0.00000  -0.00000   0.00000  -0.14326  -0.00000
  73        3S          0.00000  -0.00000  -0.00001  -0.57908  -0.00001
  74        4PX        -0.00000  -0.01808   0.00000   0.00269  -0.01425
  75        4PY        -0.00001   0.04178  -0.00001  -0.12186   0.03292
  76        4PZ        -0.00003   0.38743  -0.00003   0.01326   0.30530
  77        5PX        -0.00000  -0.02074   0.00000   0.00617  -0.02404
  78        5PY        -0.00000   0.04793   0.00000  -0.27963   0.05554
  79        5PZ        -0.00002   0.44449  -0.00004   0.03044   0.51516
  80        6D 0       -0.00173  -0.00165   0.00275  -0.00712  -0.00305
  81        6D+1       -0.02279  -0.00015   0.03614  -0.00042  -0.00027
  82        6D-1       -0.00072   0.00863   0.00114  -0.00404   0.01596
  83        6D+2        0.00113  -0.00093  -0.00179  -0.02426  -0.00173
  84        6D-2       -0.00243  -0.00043   0.00386  -0.00113  -0.00079
  85 7   H  1S         -0.00000   0.00000   0.00000   0.09792   0.00001
  86        2S         -0.00000   0.00000   0.00001   0.67670   0.00002
  87        3PX        -0.00041   0.00039   0.00064  -0.00665   0.00089
  88        3PY         0.00094  -0.00090  -0.00149   0.00453  -0.00205
  89        3PZ         0.00872  -0.00838  -0.01379  -0.00080  -0.01903
  90 8   H  1S          0.00000   0.00000  -0.00001   0.09791  -0.00001
  91        2S          0.00000   0.00000  -0.00001   0.67669  -0.00003
  92        3PX        -0.00041   0.00039  -0.00064  -0.00644  -0.00089
  93        3PY         0.00094  -0.00090   0.00149  -0.00488   0.00205
  94        3PZ         0.00872  -0.00838   0.01380   0.00023   0.01903
  95 9   H  1S         -0.00001  -0.00000  -0.00000   0.10855   0.00000
  96        2S         -0.00000  -0.00000  -0.00000   0.79563   0.00001
  97        3PX         0.00000  -0.00075   0.00000   0.00021   0.00088
  98        3PY        -0.00000   0.00173  -0.00000  -0.00946  -0.00203
  99        3PZ         0.00000   0.01601  -0.00000   0.00103  -0.01883
 100 10  H  1S         -0.00000  -0.00000  -0.00000   0.09792   0.00001
 101        2S         -0.00000  -0.00000  -0.00001   0.67670   0.00002
 102        3PX         0.00041   0.00039   0.00064   0.00665  -0.00089
 103        3PY        -0.00094  -0.00090  -0.00149  -0.00453   0.00205
 104        3PZ        -0.00872  -0.00838  -0.01379   0.00080   0.01903
 105 11  H  1S          0.00000  -0.00000   0.00001   0.09791  -0.00001
 106        2S          0.00000  -0.00000   0.00001   0.67669  -0.00003
 107        3PX         0.00041   0.00039  -0.00064   0.00644   0.00089
 108        3PY        -0.00094  -0.00090   0.00149   0.00488  -0.00205
 109        3PZ        -0.00872  -0.00838   0.01380  -0.00023  -0.01903
 110 12  H  1S         -0.00001   0.00000   0.00000   0.10855   0.00000
 111        2S         -0.00000   0.00000   0.00000   0.79563   0.00001
 112        3PX        -0.00000  -0.00075   0.00000  -0.00021  -0.00088
 113        3PY         0.00000   0.00173  -0.00000   0.00946   0.00203
 114        3PZ        -0.00000   0.01601  -0.00000  -0.00103   0.01883
                          26        27        28        29        30
                           V         V         V         V         V
     Eigenvalues --    -0.07879  -0.06925  -0.03805  -0.03151  -0.00708
   1 1   C  1S         -0.01641   0.03654   0.05288   0.08667  -0.07207
   2        2S          0.04372  -0.09527  -0.13166  -0.21586   0.17752
   3        3S          0.35825  -0.68438  -0.96896  -1.67324   0.20039
   4        4PX        -0.07579   0.17883   0.01836   0.08609  -0.06759
   5        4PY         0.07793  -0.07482  -0.08124  -0.01634   0.05213
   6        4PZ        -0.01194   0.01642   0.00962   0.00579  -0.00878
   7        5PX        -0.20717   0.38861  -0.00837   0.36321  -0.66675
   8        5PY         0.07364  -0.23006  -0.42508   0.04160   0.39573
   9        5PZ        -0.01762   0.04295   0.04544   0.01250  -0.07381
  10        6D 0        0.00057  -0.00153  -0.00399  -0.00577   0.00871
  11        6D+1       -0.00098   0.00200  -0.00018  -0.00027  -0.00035
  12        6D-1       -0.00102  -0.00045   0.00063  -0.00203   0.00151
  13        6D+2       -0.01191   0.00514   0.00904  -0.00980   0.00014
  14        6D-2        0.00356  -0.01511   0.00852   0.00271  -0.00335
  15 2   C  1S          0.01640   0.03654   0.05285  -0.08668   0.07207
  16        2S         -0.04371  -0.09527  -0.13159   0.21591  -0.17752
  17        3S         -0.35814  -0.68443  -0.96845   1.67357  -0.20042
  18        4PX         0.07223   0.17533   0.01473  -0.08528   0.06522
  19        4PY         0.08189   0.08433   0.08212  -0.02097   0.05569
  20        4PZ        -0.00546  -0.00091  -0.00816  -0.00173  -0.00295
  21        5PX         0.20362   0.37801  -0.02723  -0.36461   0.64853
  22        5PY         0.08462   0.25064   0.42413   0.02193   0.43104
  23        5PZ         0.00039  -0.00937  -0.04699  -0.01942  -0.01619
  24        6D 0       -0.00064  -0.00178  -0.00386   0.00572  -0.00866
  25        6D+1        0.00007  -0.00137   0.00159  -0.00042   0.00106
  26        6D-1        0.00136   0.00080  -0.00002   0.00229  -0.00177
  27        6D+2        0.01150   0.00364   0.00983   0.00949   0.00018
  28        6D-2        0.00471   0.01557  -0.00753   0.00356  -0.00320
  29 3   C  1S          0.04734   0.00001  -0.09631   0.00001  -0.06929
  30        2S         -0.12554  -0.00002   0.24451  -0.00004   0.17234
  31        3S         -0.81036  -0.00007   1.82623  -0.00029   0.17396
  32        4PX        -0.00515   0.03827   0.00211   0.06790   0.00138
  33        4PY         0.23309   0.00105  -0.09503   0.00184  -0.06245
  34        4PZ        -0.02537   0.00167   0.01034   0.00297   0.00680
  35        5PX        -0.01204  -0.03973   0.00743   0.48599   0.01546
  36        5PY         0.54568  -0.00101  -0.33323   0.01309  -0.70060
  37        5PZ        -0.05940  -0.00175   0.03627   0.02129   0.07626
  38        6D 0       -0.00373   0.00008   0.01026   0.00013   0.01205
  39        6D+1       -0.00047   0.00105  -0.00128   0.00172  -0.00125
  40        6D-1       -0.00281  -0.00039   0.00072  -0.00064   0.00153
  41        6D+2       -0.01892   0.00047  -0.01094   0.00077  -0.00673
  42        6D-2       -0.00089  -0.00955  -0.00062  -0.01569  -0.00043
  43 4   C  1S          0.01641  -0.03654   0.05288   0.08667   0.07207
  44        2S         -0.04372   0.09527  -0.13166  -0.21586  -0.17752
  45        3S         -0.35825   0.68438  -0.96896  -1.67324  -0.20039
  46        4PX        -0.07579   0.17883  -0.01836  -0.08609  -0.06759
  47        4PY         0.07793  -0.07482   0.08124   0.01634   0.05213
  48        4PZ        -0.01194   0.01642  -0.00962  -0.00579  -0.00878
  49        5PX        -0.20717   0.38861   0.00837  -0.36321  -0.66675
  50        5PY         0.07364  -0.23006   0.42508  -0.04160   0.39573
  51        5PZ        -0.01762   0.04295  -0.04544  -0.01250  -0.07381
  52        6D 0       -0.00057   0.00153  -0.00399  -0.00577  -0.00871
  53        6D+1        0.00098  -0.00200  -0.00018  -0.00027   0.00035
  54        6D-1        0.00102   0.00045   0.00063  -0.00203  -0.00151
  55        6D+2        0.01191  -0.00514   0.00904  -0.00980  -0.00014
  56        6D-2       -0.00356   0.01511   0.00852   0.00271   0.00335
  57 5   C  1S         -0.01640  -0.03654   0.05285  -0.08668  -0.07207
  58        2S          0.04371   0.09527  -0.13159   0.21591   0.17752
  59        3S          0.35814   0.68443  -0.96845   1.67357   0.20042
  60        4PX         0.07223   0.17533  -0.01473   0.08528   0.06522
  61        4PY         0.08189   0.08433  -0.08212   0.02097   0.05569
  62        4PZ        -0.00546  -0.00091   0.00816   0.00173  -0.00295
  63        5PX         0.20362   0.37801   0.02723   0.36461   0.64853
  64        5PY         0.08462   0.25064  -0.42413  -0.02193   0.43104
  65        5PZ         0.00039  -0.00937   0.04699   0.01942  -0.01619
  66        6D 0        0.00064   0.00178  -0.00386   0.00572   0.00866
  67        6D+1       -0.00007   0.00137   0.00159  -0.00042  -0.00106
  68        6D-1       -0.00136  -0.00080  -0.00002   0.00229   0.00177
  69        6D+2       -0.01150  -0.00364   0.00983   0.00949  -0.00018
  70        6D-2       -0.00471  -0.01557  -0.00753   0.00356   0.00320
  71 6   C  1S         -0.04734  -0.00001  -0.09631   0.00001   0.06929
  72        2S          0.12554   0.00002   0.24451  -0.00004  -0.17234
  73        3S          0.81036   0.00007   1.82623  -0.00029  -0.17396
  74        4PX        -0.00515   0.03827  -0.00211  -0.06790   0.00138
  75        4PY         0.23309   0.00105   0.09503  -0.00184  -0.06245
  76        4PZ        -0.02537   0.00167  -0.01034  -0.00297   0.00680
  77        5PX        -0.01204  -0.03973  -0.00743  -0.48599   0.01546
  78        5PY         0.54568  -0.00101   0.33323  -0.01309  -0.70060
  79        5PZ        -0.05940  -0.00175  -0.03627  -0.02129   0.07626
  80        6D 0        0.00373  -0.00008   0.01026   0.00013  -0.01205
  81        6D+1        0.00047  -0.00105  -0.00128   0.00172   0.00125
  82        6D-1        0.00281   0.00039   0.00072  -0.00064  -0.00153
  83        6D+2        0.01892  -0.00047  -0.01094   0.00077   0.00673
  84        6D-2        0.00089   0.00955  -0.00062  -0.01569   0.00043
  85 7   H  1S         -0.03541   0.06849   0.02882   0.02970  -0.08362
  86        2S         -0.52639   1.05064   0.71305   1.15431  -1.14502
  87        3PX         0.00360  -0.00753  -0.00970  -0.00218   0.00910
  88        3PY        -0.00239   0.00423  -0.00832   0.00928  -0.00454
  89        3PZ         0.00043  -0.00081   0.00044  -0.00110   0.00091
  90 8   H  1S          0.03539   0.06849   0.02880  -0.02971   0.08362
  91        2S          0.52622   1.05068   0.71269  -1.15456   1.14508
  92        3PX        -0.00349  -0.00734  -0.01005   0.00177  -0.00889
  93        3PY        -0.00258  -0.00463   0.00779   0.00939  -0.00502
  94        3PZ         0.00011   0.00016  -0.00131  -0.00093   0.00013
  95 9   H  1S          0.09539   0.00001  -0.03866   0.00000  -0.07754
  96        2S          1.26670   0.00013  -1.27404   0.00020  -1.01142
  97        3PX         0.00025  -0.00044  -0.00017   0.01512  -0.00022
  98        3PY        -0.01137  -0.00001   0.00782   0.00040   0.00985
  99        3PZ         0.00124  -0.00002  -0.00085   0.00066  -0.00107
 100 10  H  1S          0.03541  -0.06849   0.02882   0.02970   0.08362
 101        2S          0.52639  -1.05064   0.71305   1.15431   1.14502
 102        3PX         0.00360  -0.00753   0.00970   0.00218   0.00910
 103        3PY        -0.00239   0.00423   0.00832  -0.00928  -0.00454
 104        3PZ         0.00043  -0.00081  -0.00044   0.00110   0.00091
 105 11  H  1S         -0.03539  -0.06849   0.02880  -0.02971  -0.08362
 106        2S         -0.52622  -1.05068   0.71269  -1.15456  -1.14508
 107        3PX        -0.00349  -0.00734   0.01005  -0.00177  -0.00889
 108        3PY        -0.00258  -0.00463  -0.00779  -0.00939  -0.00502
 109        3PZ         0.00011   0.00016   0.00131   0.00093   0.00013
 110 12  H  1S         -0.09539  -0.00001  -0.03866   0.00000   0.07754
 111        2S         -1.26670  -0.00013  -1.27404   0.00020   1.01142
 112        3PX         0.00025  -0.00044   0.00017  -0.01512  -0.00022
 113        3PY        -0.01137  -0.00001  -0.00782  -0.00040   0.00985
 114        3PZ         0.00124  -0.00002   0.00085  -0.00066  -0.00107
                          31        32        33        34        35
                           V         V         V         V         V
     Eigenvalues --     0.07517   0.07783   0.08573   0.08821   0.13942
   1 1   C  1S          0.04371   0.07552  -0.03474   0.01719   0.08905
   2        2S         -0.10356  -0.19400   0.05191  -0.01811  -0.62781
   3        3S         -1.53999  -2.63834   2.16723  -1.11848   0.59743
   4        4PX        -0.15268  -0.19851   0.13402   0.11763  -0.07987
   5        4PY         0.01176   0.12860   0.12844   0.25802   0.02799
   6        4PZ        -0.00840  -0.02313  -0.00760  -0.02233  -0.00675
   7        5PX        -1.12229  -0.98472   0.70073   0.86285  -0.12963
   8        5PY        -0.41148   1.04997   0.81851   1.64956   0.03661
   9        5PZ        -0.00800  -0.15919  -0.05557  -0.13762  -0.01000
  10        6D 0       -0.00664  -0.00958   0.01227  -0.00711   0.03695
  11        6D+1       -0.00096   0.00003   0.00401  -0.00180  -0.00195
  12        6D-1        0.00311  -0.00469   0.00129  -0.00504   0.00704
  13        6D+2        0.02861  -0.02483   0.00914  -0.03671   0.00398
  14        6D-2        0.02613  -0.00362  -0.04243   0.00634  -0.00828
  15 2   C  1S          0.04370  -0.07552  -0.03475  -0.01718   0.08905
  16        2S         -0.10353   0.19399   0.05192   0.01808  -0.62782
  17        3S         -1.53959   2.63856   2.16764   1.11755   0.59731
  18        4PX        -0.15195   0.19262   0.13947  -0.12893  -0.07854
  19        4PY        -0.01991   0.13909  -0.12099   0.25146  -0.03224
  20        4PZ        -0.00495  -0.00600   0.01956  -0.03313  -0.00019
  21        5PX        -1.13895   0.93741   0.73554  -0.93488  -0.12790
  22        5PY         0.35095   1.10149  -0.77927   1.60168  -0.04356
  23        5PZ        -0.09100  -0.07502   0.11835  -0.21634  -0.00128
  24        6D 0       -0.00624   0.00963   0.01157   0.00698   0.03682
  25        6D+1        0.00445   0.00051  -0.00537   0.00003  -0.00374
  26        6D-1        0.00109   0.00449   0.00478   0.00570   0.00770
  27        6D+2        0.03103   0.02507   0.00498   0.03592   0.00318
  28        6D-2       -0.02311  -0.00134   0.04293   0.00975   0.00801
  29 3   C  1S         -0.09096   0.00001  -0.00001  -0.03670   0.08985
  30        2S          0.23769  -0.00003   0.00000   0.03746  -0.67786
  31        3S          3.06187  -0.00019   0.00067   2.72440   1.01489
  32        4PX        -0.00615   0.05722   0.33130  -0.00161   0.00178
  33        4PY         0.27888   0.00151   0.00890   0.06956  -0.08084
  34        4PZ        -0.03036   0.00251   0.01450  -0.00757   0.00881
  35        5PX        -0.03428   1.11588   2.12513  -0.00820  -0.00013
  36        5PY         1.55829   0.02982   0.05711   0.35068   0.00501
  37        5PZ        -0.16963   0.04884   0.09301  -0.03820  -0.00055
  38        6D 0        0.01680   0.00039   0.00030   0.01800   0.04172
  39        6D+1       -0.00188   0.00526   0.00388  -0.00349  -0.00378
  40        6D-1        0.00178  -0.00196  -0.00144  -0.00212   0.00679
  41        6D+2       -0.01259   0.00234   0.00172  -0.04963  -0.00981
  42        6D-2       -0.00076  -0.04789  -0.03533  -0.00257  -0.00083
  43 4   C  1S          0.04371   0.07552   0.03474  -0.01719   0.08905
  44        2S         -0.10356  -0.19400  -0.05191   0.01811  -0.62781
  45        3S         -1.53999  -2.63834  -2.16723   1.11848   0.59743
  46        4PX         0.15268   0.19851   0.13402   0.11763   0.07987
  47        4PY        -0.01176  -0.12860   0.12844   0.25802  -0.02799
  48        4PZ         0.00840   0.02313  -0.00760  -0.02233   0.00675
  49        5PX         1.12229   0.98472   0.70073   0.86285   0.12963
  50        5PY         0.41148  -1.04997   0.81851   1.64956  -0.03661
  51        5PZ         0.00800   0.15919  -0.05557  -0.13762   0.01000
  52        6D 0       -0.00664  -0.00958  -0.01227   0.00711   0.03695
  53        6D+1       -0.00096   0.00003  -0.00401   0.00180  -0.00195
  54        6D-1        0.00311  -0.00469  -0.00129   0.00504   0.00704
  55        6D+2        0.02861  -0.02483  -0.00914   0.03671   0.00398
  56        6D-2        0.02613  -0.00362   0.04243  -0.00634  -0.00828
  57 5   C  1S          0.04370  -0.07552   0.03475   0.01718   0.08905
  58        2S         -0.10353   0.19399  -0.05192  -0.01808  -0.62782
  59        3S         -1.53959   2.63856  -2.16764  -1.11755   0.59731
  60        4PX         0.15195  -0.19262   0.13947  -0.12893   0.07854
  61        4PY         0.01991  -0.13909  -0.12099   0.25146   0.03224
  62        4PZ         0.00495   0.00600   0.01956  -0.03313   0.00019
  63        5PX         1.13895  -0.93741   0.73554  -0.93488   0.12790
  64        5PY        -0.35095  -1.10149  -0.77927   1.60168   0.04356
  65        5PZ         0.09100   0.07502   0.11835  -0.21634   0.00128
  66        6D 0       -0.00624   0.00963  -0.01157  -0.00698   0.03682
  67        6D+1        0.00445   0.00051   0.00537  -0.00003  -0.00374
  68        6D-1        0.00109   0.00449  -0.00478  -0.00570   0.00770
  69        6D+2        0.03103   0.02507  -0.00498  -0.03592   0.00318
  70        6D-2       -0.02311  -0.00134  -0.04293  -0.00975   0.00801
  71 6   C  1S         -0.09096   0.00001   0.00001   0.03670   0.08985
  72        2S          0.23769  -0.00003  -0.00000  -0.03746  -0.67786
  73        3S          3.06187  -0.00019  -0.00067  -2.72440   1.01489
  74        4PX         0.00615  -0.05722   0.33130  -0.00161  -0.00178
  75        4PY        -0.27888  -0.00151   0.00890   0.06956   0.08084
  76        4PZ         0.03036  -0.00251   0.01450  -0.00757  -0.00881
  77        5PX         0.03428  -1.11588   2.12513  -0.00820   0.00013
  78        5PY        -1.55829  -0.02982   0.05711   0.35068  -0.00501
  79        5PZ         0.16963  -0.04884   0.09301  -0.03820   0.00055
  80        6D 0        0.01680   0.00039  -0.00030  -0.01800   0.04172
  81        6D+1       -0.00188   0.00526  -0.00388   0.00349  -0.00378
  82        6D-1        0.00178  -0.00196   0.00144   0.00212   0.00679
  83        6D+2       -0.01259   0.00234  -0.00172   0.04963  -0.00981
  84        6D-2       -0.00076  -0.04789   0.03533   0.00257  -0.00083
  85 7   H  1S         -0.00967  -0.03030   0.13188  -0.08312  -0.10827
  86        2S         -0.38284  -0.67753  -0.32924   0.23990  -0.31016
  87        3PX        -0.00817   0.01075  -0.00235   0.01149   0.00076
  88        3PY        -0.02077   0.00891   0.01219   0.01129  -0.00003
  89        3PZ         0.00186  -0.00046  -0.00142  -0.00068   0.00004
  90 8   H  1S         -0.00967   0.03030   0.13192   0.08305  -0.10826
  91        2S         -0.38274   0.67759  -0.32937  -0.23975  -0.31018
  92        3PX        -0.00908  -0.01113  -0.00182  -0.01197   0.00076
  93        3PY         0.02031   0.00832  -0.01230   0.01066   0.00007
  94        3PZ        -0.00261  -0.00142   0.00124  -0.00171   0.00003
  95 9   H  1S          0.02773  -0.00001   0.00003   0.15634  -0.13126
  96        2S          0.75589  -0.00006  -0.00007  -0.35407  -0.30314
  97        3PX         0.00013   0.02734   0.02121   0.00022  -0.00004
  98        3PY        -0.00569   0.00073   0.00057  -0.00998   0.00166
  99        3PZ         0.00062   0.00120   0.00093   0.00109  -0.00018
 100 10  H  1S         -0.00967  -0.03030  -0.13188   0.08312  -0.10827
 101        2S         -0.38284  -0.67753   0.32924  -0.23990  -0.31016
 102        3PX         0.00817  -0.01075  -0.00235   0.01149  -0.00076
 103        3PY         0.02077  -0.00891   0.01219   0.01129   0.00003
 104        3PZ        -0.00186   0.00046  -0.00142  -0.00068  -0.00004
 105 11  H  1S         -0.00967   0.03030  -0.13192  -0.08305  -0.10826
 106        2S         -0.38274   0.67759   0.32937   0.23975  -0.31018
 107        3PX         0.00908   0.01113  -0.00182  -0.01197  -0.00076
 108        3PY        -0.02031  -0.00832  -0.01230   0.01066  -0.00007
 109        3PZ         0.00261   0.00142   0.00124  -0.00171  -0.00003
 110 12  H  1S          0.02773  -0.00001  -0.00003  -0.15634  -0.13126
 111        2S          0.75589  -0.00006   0.00007   0.35407  -0.30314
 112        3PX        -0.00013  -0.02734   0.02121   0.00022   0.00004
 113        3PY         0.00569  -0.00073   0.00057  -0.00998  -0.00166
 114        3PZ        -0.00062  -0.00120   0.00093   0.00109   0.00018
                          36        37        38        39        40
                           V         V         V         V         V
     Eigenvalues --     0.19464   0.19501   0.21072   0.23045   0.24000
   1 1   C  1S          0.01995  -0.04814   0.07198   0.02497   0.00000
   2        2S         -0.19075   0.39116  -0.65877  -0.13499  -0.00001
   3        3S          0.46408  -0.37209   1.65500   0.13411   0.00000
   4        4PX        -0.14125   0.07945  -0.02106  -0.05188  -0.01717
   5        4PY        -0.21689   0.02771   0.14089   0.05723   0.03966
   6        4PZ         0.01679   0.00074  -0.01618  -0.00859   0.36775
   7        5PX         0.28788   0.47483   0.20109   0.16271   0.01067
   8        5PY         0.47840   0.47191   0.16447  -0.09080  -0.02477
   9        5PZ        -0.03815  -0.02874  -0.00836   0.01739  -0.22949
  10        6D 0        0.01440  -0.02773   0.04758  -0.02191   0.00211
  11        6D+1       -0.00147   0.00437  -0.00881   0.01018   0.01385
  12        6D-1       -0.00160  -0.00229   0.01095  -0.00256  -0.00513
  13        6D+2       -0.03449   0.03009  -0.00177   0.04094  -0.00008
  14        6D-2       -0.01202  -0.00656   0.04458  -0.05997   0.00175
  15 2   C  1S          0.01957   0.04829   0.07198   0.02496  -0.00000
  16        2S         -0.18765  -0.39265  -0.65877  -0.13500   0.00002
  17        3S          0.46104   0.37572   1.65459   0.13424   0.00001
  18        4PX        -0.15001  -0.08177  -0.01482  -0.04930  -0.01716
  19        4PY         0.20886   0.02507  -0.14187  -0.05994   0.03964
  20        4PZ        -0.02952  -0.00651   0.01460   0.00417   0.36774
  21        5PX         0.31252  -0.49263   0.20797   0.15859   0.01077
  22        5PY        -0.46593   0.44223  -0.15362   0.09941  -0.02476
  23        5PZ         0.06483  -0.07069   0.02626  -0.00332  -0.22947
  24        6D 0        0.01402   0.02798   0.04833  -0.02293  -0.00002
  25        6D+1       -0.00369  -0.00259   0.00107  -0.00344   0.01365
  26        6D-1       -0.00078   0.00161   0.00727   0.00251   0.00600
  27        6D+2       -0.03525  -0.02956   0.00262   0.03487  -0.00128
[...]
 ===============================================================================

 within unit  1
    7. BD ( 1) C  1- C  2      25. BD*( 1) C  1- C  6      0.74    1.19   0.037
    7. BD ( 1) C  1- C  2      26. BD*( 1) C  1- H  7      0.67    1.12   0.035
    7. BD ( 1) C  1- C  2      27. BD*( 1) C  2- C  3      0.74    1.19   0.037
    7. BD ( 1) C  1- C  2      28. BD*( 1) C  2- H  8      0.67    1.12   0.035
    7. BD ( 1) C  1- C  2      30. BD*( 1) C  3- H  9      0.95    1.11   0.041
    7. BD ( 1) C  1- C  2      36. BD*( 1) C  6- H 12      0.95    1.11   0.041
    7. BD ( 1) C  1- C  2      55. RY ( 1) C  3            0.57    1.84   0.041
    7. BD ( 1) C  1- C  2      56. RY ( 2) C  3            0.38    1.34   0.028
    7. BD ( 1) C  1- C  2      82. RY ( 1) C  6            0.57    1.84   0.041
    7. BD ( 1) C  1- C  2      83. RY ( 2) C  6            0.38    1.34   0.028
    8. BD ( 2) C  1- C  2      21. LV ( 1) C  3           28.64    0.19   0.093
    8. BD ( 2) C  1- C  2      22. LV ( 1) C  6           28.63    0.19   0.093
    8. BD ( 2) C  1- C  2      40. RY ( 4) C  1            0.27    1.05   0.021
    8. BD ( 2) C  1- C  2      49. RY ( 4) C  2            0.27    1.05   0.021
    8. BD ( 2) C  1- C  2      58. RY ( 4) C  3            0.27    2.18   0.031
    8. BD ( 2) C  1- C  2      63. RY ( 9) C  3            0.66    1.23   0.036
    8. BD ( 2) C  1- C  2      85. RY ( 4) C  6            0.27    2.18   0.031
    8. BD ( 2) C  1- C  2      90. RY ( 9) C  6            0.66    1.22   0.036
    9. BD ( 1) C  1- C  6      23. BD*( 1) C  1- C  2      0.73    1.20   0.037
    9. BD ( 1) C  1- C  6      26. BD*( 1) C  1- H  7      0.53    1.13   0.031
    9. BD ( 1) C  1- C  6      28. BD*( 1) C  2- H  8      0.99    1.13   0.042
    9. BD ( 1) C  1- C  6      34. BD*( 1) C  5- C  6      0.68    1.19   0.036
    9. BD ( 1) C  1- C  6      35. BD*( 1) C  5- H 11      1.05    1.13   0.043
    9. BD ( 1) C  1- C  6      36. BD*( 1) C  6- H 12      0.49    1.12   0.030
    9. BD ( 1) C  1- C  6      46. RY ( 1) C  2            0.57    1.82   0.041
    9. BD ( 1) C  1- C  6      47. RY ( 2) C  2            0.46    1.33   0.031
    9. BD ( 1) C  1- C  6      73. RY ( 1) C  5            0.65    1.82   0.044
    9. BD ( 1) C  1- C  6      74. RY ( 2) C  5            0.40    1.33   0.029
   10. BD ( 1) C  1- H  7      23. BD*( 1) C  1- C  2      0.33    1.06   0.024
   10. BD ( 1) C  1- H  7      27. BD*( 1) C  2- C  3      1.76    1.05   0.054
   10. BD ( 1) C  1- H  7      28. BD*( 1) C  2- H  8      0.26    0.99   0.020
   10. BD ( 1) C  1- H  7      34. BD*( 1) C  5- C  6      1.62    1.05   0.052
   10. BD ( 1) C  1- H  7      36. BD*( 1) C  6- H 12      0.27    0.98   0.021
   10. BD ( 1) C  1- H  7      46. RY ( 1) C  2            0.30    1.68   0.028
   10. BD ( 1) C  1- H  7      82. RY ( 1) C  6            0.28    1.71   0.028
   11. BD ( 1) C  2- C  3      23. BD*( 1) C  1- C  2      0.73    1.20   0.037
   11. BD ( 1) C  2- C  3      26. BD*( 1) C  1- H  7      0.99    1.13   0.042
   11. BD ( 1) C  2- C  3      28. BD*( 1) C  2- H  8      0.53    1.13   0.031
   11. BD ( 1) C  2- C  3      29. BD*( 1) C  3- C  4      0.68    1.19   0.036
   11. BD ( 1) C  2- C  3      30. BD*( 1) C  3- H  9      0.49    1.12   0.030
   11. BD ( 1) C  2- C  3      33. BD*( 1) C  4- H 10      1.05    1.13   0.043
   11. BD ( 1) C  2- C  3      37. RY ( 1) C  1            0.57    1.82   0.041
   11. BD ( 1) C  2- C  3      38. RY ( 2) C  1            0.46    1.33   0.031
   11. BD ( 1) C  2- C  3      64. RY ( 1) C  4            0.65    1.82   0.044
   11. BD ( 1) C  2- C  3      65. RY ( 2) C  4            0.40    1.33   0.029
   12. BD ( 1) C  2- H  8      23. BD*( 1) C  1- C  2      0.33    1.06   0.024
   12. BD ( 1) C  2- H  8      25. BD*( 1) C  1- C  6      1.76    1.05   0.054
   12. BD ( 1) C  2- H  8      26. BD*( 1) C  1- H  7      0.26    0.99   0.020
   12. BD ( 1) C  2- H  8      29. BD*( 1) C  3- C  4      1.62    1.05   0.052
   12. BD ( 1) C  2- H  8      30. BD*( 1) C  3- H  9      0.27    0.98   0.021
   12. BD ( 1) C  2- H  8      37. RY ( 1) C  1            0.30    1.68   0.028
   12. BD ( 1) C  2- H  8      55. RY ( 1) C  3            0.28    1.71   0.028
   13. BD ( 1) C  3- C  4      27. BD*( 1) C  2- C  3      0.68    1.19   0.036
   13. BD ( 1) C  3- C  4      28. BD*( 1) C  2- H  8      1.05    1.13   0.043
   13. BD ( 1) C  3- C  4      30. BD*( 1) C  3- H  9      0.49    1.12   0.030
   13. BD ( 1) C  3- C  4      31. BD*( 1) C  4- C  5      0.73    1.20   0.037
   13. BD ( 1) C  3- C  4      33. BD*( 1) C  4- H 10      0.53    1.13   0.031
   13. BD ( 1) C  3- C  4      35. BD*( 1) C  5- H 11      0.99    1.13   0.042
   13. BD ( 1) C  3- C  4      46. RY ( 1) C  2            0.65    1.82   0.044
   13. BD ( 1) C  3- C  4      47. RY ( 2) C  2            0.40    1.33   0.029
   13. BD ( 1) C  3- C  4      73. RY ( 1) C  5            0.57    1.82   0.041
   13. BD ( 1) C  3- C  4      74. RY ( 2) C  5            0.46    1.33   0.031
   14. BD ( 1) C  3- H  9      23. BD*( 1) C  1- C  2      1.79    1.07   0.055
   14. BD ( 1) C  3- H  9      28. BD*( 1) C  2- H  8      0.29    1.01   0.022
   14. BD ( 1) C  3- H  9      31. BD*( 1) C  4- C  5      1.79    1.07   0.055
   14. BD ( 1) C  3- H  9      33. BD*( 1) C  4- H 10      0.29    1.01   0.022
   14. BD ( 1) C  3- H  9      46. RY ( 1) C  2            0.30    1.70   0.029
   14. BD ( 1) C  3- H  9      64. RY ( 1) C  4            0.30    1.70   0.029
   15. BD ( 1) C  4- C  5      29. BD*( 1) C  3- C  4      0.74    1.19   0.037
   15. BD ( 1) C  4- C  5      30. BD*( 1) C  3- H  9      0.95    1.11   0.041
   15. BD ( 1) C  4- C  5      33. BD*( 1) C  4- H 10      0.67    1.12   0.035
   15. BD ( 1) C  4- C  5      34. BD*( 1) C  5- C  6      0.74    1.19   0.037
   15. BD ( 1) C  4- C  5      35. BD*( 1) C  5- H 11      0.67    1.12   0.035
   15. BD ( 1) C  4- C  5      36. BD*( 1) C  6- H 12      0.95    1.11   0.041
   15. BD ( 1) C  4- C  5      55. RY ( 1) C  3            0.57    1.84   0.041
   15. BD ( 1) C  4- C  5      56. RY ( 2) C  3            0.38    1.34   0.028
   15. BD ( 1) C  4- C  5      82. RY ( 1) C  6            0.57    1.84   0.041
   15. BD ( 1) C  4- C  5      83. RY ( 2) C  6            0.38    1.34   0.028
   16. BD ( 2) C  4- C  5      21. LV ( 1) C  3           28.63    0.19   0.093
   16. BD ( 2) C  4- C  5      22. LV ( 1) C  6           28.64    0.19   0.093
   16. BD ( 2) C  4- C  5      58. RY ( 4) C  3            0.27    2.18   0.031
   16. BD ( 2) C  4- C  5      63. RY ( 9) C  3            0.66    1.23   0.036
   16. BD ( 2) C  4- C  5      67. RY ( 4) C  4            0.27    1.05   0.021
   16. BD ( 2) C  4- C  5      76. RY ( 4) C  5            0.27    1.05   0.021
   16. BD ( 2) C  4- C  5      85. RY ( 4) C  6            0.27    2.18   0.031
   16. BD ( 2) C  4- C  5      90. RY ( 9) C  6            0.66    1.22   0.036
   17. BD ( 1) C  4- H 10      27. BD*( 1) C  2- C  3      1.62    1.05   0.052
   17. BD ( 1) C  4- H 10      30. BD*( 1) C  3- H  9      0.27    0.98   0.021
   17. BD ( 1) C  4- H 10      31. BD*( 1) C  4- C  5      0.33    1.06   0.024
   17. BD ( 1) C  4- H 10      34. BD*( 1) C  5- C  6      1.76    1.05   0.054
   17. BD ( 1) C  4- H 10      35. BD*( 1) C  5- H 11      0.26    0.99   0.020
   17. BD ( 1) C  4- H 10      55. RY ( 1) C  3            0.28    1.71   0.028
   17. BD ( 1) C  4- H 10      73. RY ( 1) C  5            0.30    1.68   0.028
   18. BD ( 1) C  5- C  6      25. BD*( 1) C  1- C  6      0.68    1.19   0.036
   18. BD ( 1) C  5- C  6      26. BD*( 1) C  1- H  7      1.05    1.13   0.043
   18. BD ( 1) C  5- C  6      31. BD*( 1) C  4- C  5      0.73    1.20   0.037
   18. BD ( 1) C  5- C  6      33. BD*( 1) C  4- H 10      0.99    1.13   0.042
   18. BD ( 1) C  5- C  6      35. BD*( 1) C  5- H 11      0.53    1.13   0.031
   18. BD ( 1) C  5- C  6      36. BD*( 1) C  6- H 12      0.49    1.12   0.030
   18. BD ( 1) C  5- C  6      37. RY ( 1) C  1            0.65    1.82   0.044
   18. BD ( 1) C  5- C  6      38. RY ( 2) C  1            0.40    1.33   0.029
   18. BD ( 1) C  5- C  6      64. RY ( 1) C  4            0.57    1.82   0.041
   18. BD ( 1) C  5- C  6      65. RY ( 2) C  4            0.46    1.33   0.031
   19. BD ( 1) C  5- H 11      25. BD*( 1) C  1- C  6      1.62    1.05   0.052
   19. BD ( 1) C  5- H 11      29. BD*( 1) C  3- C  4      1.76    1.05   0.054
   19. BD ( 1) C  5- H 11      31. BD*( 1) C  4- C  5      0.33    1.06   0.024
   19. BD ( 1) C  5- H 11      33. BD*( 1) C  4- H 10      0.26    0.99   0.020
   19. BD ( 1) C  5- H 11      36. BD*( 1) C  6- H 12      0.27    0.98   0.021
   19. BD ( 1) C  5- H 11      64. RY ( 1) C  4            0.30    1.68   0.028
   19. BD ( 1) C  5- H 11      82. RY ( 1) C  6            0.28    1.71   0.028
   20. BD ( 1) C  6- H 12      23. BD*( 1) C  1- C  2      1.79    1.07   0.055
   20. BD ( 1) C  6- H 12      26. BD*( 1) C  1- H  7      0.29    1.01   0.022
   20. BD ( 1) C  6- H 12      31. BD*( 1) C  4- C  5      1.79    1.07   0.055
   20. BD ( 1) C  6- H 12      35. BD*( 1) C  5- H 11      0.29    1.01   0.022
   20. BD ( 1) C  6- H 12      37. RY ( 1) C  1            0.30    1.70   0.029
   20. BD ( 1) C  6- H 12      73. RY ( 1) C  5            0.30    1.70   0.029


 NATURAL BOND ORBITALS (Summary):

                                                     Principal Delocalizations
           NBO                 Occupancy    Energy   (geminal,vicinal,remote)
 ===============================================================================
 Molecular unit  1  (C6H6)
 ------ Lewis --------------------------------------
    1. CR ( 1) C  1             0.99997   -10.41976
    2. CR ( 1) C  2             0.99997   -10.41975
    3. CR ( 1) C  3             0.99997   -10.44668
    4. CR ( 1) C  4             0.99997   -10.41976
    5. CR ( 1) C  5             0.99997   -10.41975
    6. CR ( 1) C  6             0.99997   -10.44668
    7. BD ( 1) C  1- C  2       0.99044    -0.82217  30(v),36(v),25(g),27(g)
                                                     26(g),28(g),55(v),82(v)
                                                     56(v),83(v)
    8. BD ( 2) C  1- C  2       0.85013    -0.47413  21(v),22(v),90(v),63(v)
                                                     40(g),49(g),85(v),58(v)
    9. BD ( 1) C  1- C  6       0.99074    -0.83146  35(v),28(v),23(g),34(g)
                                                     73(v),46(v),26(g),36(g)
                                                     47(v),74(v)
   10. BD ( 1) C  1- H  7       0.98967    -0.69099  27(v),34(v),23(g),46(v)
                                                     82(v),36(v),28(v)
   11. BD ( 1) C  2- C  3       0.99074    -0.83146  33(v),26(v),23(g),29(g)
                                                     64(v),37(v),28(g),30(g)
                                                     38(v),65(v)
   12. BD ( 1) C  2- H  8       0.98967    -0.69099  25(v),29(v),23(g),37(v)
                                                     55(v),30(v),26(v)
   13. BD ( 1) C  3- C  4       0.99074    -0.83146  28(v),35(v),31(g),27(g)
                                                     46(v),73(v),33(g),30(g)
                                                     74(v),47(v)
   14. BD ( 1) C  3- H  9       0.98988    -0.70622  23(v),31(v),46(v),64(v)
                                                     28(v),33(v)
   15. BD ( 1) C  4- C  5       0.99044    -0.82217  30(v),36(v),29(g),34(g)
                                                     33(g),35(g),55(v),82(v)
                                                     56(v),83(v)
   16. BD ( 2) C  4- C  5       0.85013    -0.47413  22(v),21(v),90(v),63(v)
                                                     67(g),76(g),58(v),85(v)
   17. BD ( 1) C  4- H 10       0.98967    -0.69099  34(v),27(v),31(g),73(v)
                                                     55(v),30(v),35(v)
   18. BD ( 1) C  5- C  6       0.99074    -0.83146  26(v),33(v),31(g),25(g)
                                                     37(v),64(v),35(g),36(g)
                                                     65(v),38(v)
   19. BD ( 1) C  5- H 11       0.98967    -0.69099  29(v),25(v),31(g),64(v)
                                                     82(v),36(v),33(v)
   20. BD ( 1) C  6- H 12       0.98988    -0.70622  23(v),31(v),37(v),73(v)
                                                     26(v),35(v)
 ------ non-Lewis ----------------------------------
   21. LV ( 1) C  3             0.14896    -0.28333
   22. LV ( 1) C  6             0.14896    -0.28333
   23. BD*( 1) C  1- C  2       0.00827     0.36782
   24. BD*( 2) C  1- C  2       0.00000    -0.16851
   25. BD*( 1) C  1- C  6       0.00770     0.36325
   26. BD*( 1) C  1- H  7       0.00695     0.29996
   27. BD*( 1) C  2- C  3       0.00770     0.36325
   28. BD*( 1) C  2- H  8       0.00695     0.29997
   29. BD*( 1) C  3- C  4       0.00770     0.36325
   30. BD*( 1) C  3- H  9       0.00681     0.28687
   31. BD*( 1) C  4- C  5       0.00827     0.36782
   32. BD*( 2) C  4- C  5       0.00000    -0.16851
   33. BD*( 1) C  4- H 10       0.00695     0.29996
   34. BD*( 1) C  5- C  6       0.00770     0.36325
   35. BD*( 1) C  5- H 11       0.00695     0.29997
   36. BD*( 1) C  6- H 12       0.00681     0.28687
   37. RY ( 1) C  1             0.00260     0.99034
   38. RY ( 2) C  1             0.00105     0.50310
   39. RY ( 3) C  1             0.00042     0.43271
   40. RY ( 4) C  1             0.00024     0.58049
   41. RY ( 5) C  1             0.00007     2.16509
   42. RY ( 6) C  1             0.00002     2.04510
   43. RY ( 7) C  1             0.00000     1.99757
   44. RY ( 8) C  1             0.00000     1.53404
   45. RY ( 9) C  1             0.00000     1.63868
   46. RY ( 1) C  2             0.00260     0.99033
   47. RY ( 2) C  2             0.00105     0.50310
   48. RY ( 3) C  2             0.00042     0.43270
   49. RY ( 4) C  2             0.00024     0.58041
   50. RY ( 5) C  2             0.00007     2.16509
   51. RY ( 6) C  2             0.00002     2.04511
   52. RY ( 7) C  2             0.00000     1.99758
   53. RY ( 8) C  2             0.00000     1.56293
   54. RY ( 9) C  2             0.00000     1.60988
   55. RY ( 1) C  3             0.00244     1.02250
   56. RY ( 2) C  3             0.00091     0.51377
   57. RY ( 3) C  3             0.00047     0.44549
   58. RY ( 4) C  3             0.00033     1.70495
   59. RY ( 5) C  3             0.00008     2.12569
   60. RY ( 6) C  3             0.00002     1.97806
   61. RY ( 7) C  3             0.00000     1.98940
   62. RY ( 8) C  3             0.00000     1.25542
   63. RY ( 9) C  3             0.00000     0.75732
   64. RY ( 1) C  4             0.00260     0.99034
   65. RY ( 2) C  4             0.00105     0.50310
   66. RY ( 3) C  4             0.00042     0.43271
   67. RY ( 4) C  4             0.00024     0.58049
   68. RY ( 5) C  4             0.00007     2.16509
   69. RY ( 6) C  4             0.00002     2.04510
   70. RY ( 7) C  4             0.00000     1.99757
   71. RY ( 8) C  4             0.00000     1.53401
   72. RY ( 9) C  4             0.00000     1.63871
   73. RY ( 1) C  5             0.00260     0.99033
   74. RY ( 2) C  5             0.00105     0.50310
   75. RY ( 3) C  5             0.00042     0.43270
   76. RY ( 4) C  5             0.00024     0.58041
   77. RY ( 5) C  5             0.00007     2.16509
   78. RY ( 6) C  5             0.00002     2.04511
   79. RY ( 7) C  5             0.00000     1.99758
   80. RY ( 8) C  5             0.00000     1.56250
   81. RY ( 9) C  5             0.00000     1.61031
   82. RY ( 1) C  6             0.00244     1.02250
   83. RY ( 2) C  6             0.00091     0.51377
   84. RY ( 3) C  6             0.00047     0.44549
   85. RY ( 4) C  6             0.00033     1.70495
   86. RY ( 5) C  6             0.00008     2.12569
   87. RY ( 6) C  6             0.00002     1.97806
   88. RY ( 7) C  6             0.00000     1.98940
   89. RY ( 8) C  6             0.00000     1.26456
   90. RY ( 9) C  6             0.00000     0.74819
   91. RY ( 1) H  7             0.00070     0.17184
   92. RY ( 2) H  7             0.00004     1.46858
   93. RY ( 3) H  7             0.00003     2.19750
   94. RY ( 4) H  7             0.00001     1.76518
   95. RY ( 1) H  8             0.00070     0.17185
   96. RY ( 2) H  8             0.00004     1.46858
   97. RY ( 3) H  8             0.00003     2.19751
   98. RY ( 4) H  8             0.00001     1.76519
   99. RY ( 1) H  9             0.00079     0.16310
  100. RY ( 2) H  9             0.00003     2.18754
  101. RY ( 3) H  9             0.00001     1.74795
  102. RY ( 4) H  9             0.00001     1.45499
  103. RY ( 1) H 10             0.00070     0.17184
  104. RY ( 2) H 10             0.00004     1.46858
  105. RY ( 3) H 10             0.00003     2.19750
  106. RY ( 4) H 10             0.00001     1.76518
  107. RY ( 1) H 11             0.00070     0.17185
  108. RY ( 2) H 11             0.00004     1.46858
  109. RY ( 3) H 11             0.00003     2.19751
  110. RY ( 4) H 11             0.00001     1.76519
  111. RY ( 1) H 12             0.00079     0.16310
  112. RY ( 2) H 12             0.00003     2.18754
  113. RY ( 3) H 12             0.00001     1.74795
  114. RY ( 4) H 12             0.00001     1.45499
          -------------------------------
                 Total Lewis   19.58238  ( 97.9119%)
           Valence non-Lewis    0.38667  (  1.9334%)
           Rydberg non-Lewis    0.03095  (  0.1547%)
          -------------------------------
               Total unit  1   20.00000  (100.0000%)
              Charge unit  1    1.00000

 $CHOOSE
  ALPHA
   BOND D 1 2 S 1 6 S 1 7 S 2 3 S 2 8 D 3 4 S 3 9 S 4 5 S 4 10 D 5 6 S 5 11
        S 6 12 END
  END
  BETA
   BOND D 1 2 S 1 6 S 1 7 S 2 3 S 2 8 S 3 4 S 3 9 D 4 5 S 4 10 S 5 6 S 5 11
        S 6 12 END
  END
 $END

 Maximum scratch memory used by NBO was 392802 words (3.00 MB)
 Maximum scratch memory used by G16NBO was 100370 words (0.77 MB)

 Opening RunExU unformatted file "/scratch/yanfeig/Gau-34999.EUF"
 Read unf file /scratch/yanfeig/Gau-34999.EUF:
 Label Gaussian matrix elements                                         IVers= 1 NLab= 2 Version=EM64L-G16RevB.01
 Title None                                                            
 NAtoms=    12 NBasis=   114 NBsUse=   114 ICharg=     1 Multip=     2 NE=    41 Len12L=8 Len4L=8 IOpCl= 0 ICGU= -1
 GAUSSIAN SCALARS                    NI= 1 NR= 1 NTot=       1 LenBuf=    2 NRI=1 N=    1000
 NPA CHARGES                         NI= 0 NR= 1 NTot=      12 LenBuf=  256 NRI=1 N=      12
 Recovered energy= -231.741220257     dipole=      0.000000000000     -0.000000000000      0.000000000000
 1\1\GINC-NODE70\SP\ROB3LYP\def2SVP\C6H6(1+,2)\YANFEIG\03-Feb-2020\0\\#
  b3lyp/def2svp scf=(maxcycle=512, xqc) pop=(full,mbs,hirshfeld,nbo6rea
 d)\\None\\1,2\C,0,-1.2127,0.65594,-0.12732\C,0,-1.18234,-0.72019,0.022
 49\C,0,0.03036,-1.37613,0.14981\C,0,1.2127,-0.65594,0.12732\C,0,1.1823
 4,0.72019,-0.02249\C,0,-0.03036,1.37613,-0.14981\H,0,-2.15902,1.16779,
 -0.2267\H,0,-2.10496,-1.28219,0.04\H,0,0.05405,-2.44998,0.2667\H,0,2.1
 5902,-1.16779,0.2267\H,0,2.10496,1.28219,-0.04\H,0,-0.05405,2.44998,-0
 .2667\\Version=EM64L-G16RevB.01\State=2-AG\HF=-231.7412203\RMSD=2.446e
 -09\Dipole=0.,0.,0.\Quadrupole=2.2312754,4.5279656,-6.759241,-0.007272
 5,0.4276179,-1.2339376\PG=CI [X(C6H6)]\\@


      SCIENCE SANS CONSCIENCE N'EST QUE RUINE DE L'AME.

                                                  -- RABELAIS
 Job cpu time:       0 days  0 hours  4 minutes 17.5 seconds.
 Elapsed time:       0 days  0 hours  0 minutes 13.9 seconds.
 File lengths (MBytes):  RWF=     15 Int=      0 D2E=      0 Chk=      2 Scr=      1
 Normal termination of Gaussian 16 at Mon Feb  3 15:18:15 2020.
