 Entering Gaussian System, Link 0=/opt/g16/g16
 Initial command:
 /opt/g16/l1.exe "/scratch/yanfeig/Gau-34200.inp" -scrdir="/scratch/yanfeig/"
 Entering Link 1 = /opt/g16/l1.exe PID=     34202.
  
 Copyright (c) 1988-2017, Gaussian, Inc.  All Rights Reserved.
  
 This is part of the Gaussian(R) 16 program.  It is based on
 the Gaussian(R) 09 system (copyright 2009, Gaussian, Inc.),
 the Gaussian(R) 03 system (copyright 2003, Gaussian, Inc.),
 the Gaussian(R) 98 system (copyright 1998, Gaussian, Inc.),
 the Gaussian(R) 94 system (copyright 1995, Gaussian, Inc.),
 the Gaussian 92(TM) system (copyright 1992, Gaussian, Inc.),
 the Gaussian 90(TM) system (copyright 1990, Gaussian, Inc.),
 the Gaussian 88(TM) system (copyright 1988, Gaussian, Inc.),
 the Gaussian 86(TM) system (copyright 1986, Carnegie Mellon
 University), and the Gaussian 82(TM) system (copyright 1983,
 Carnegie Mellon University). Gaussian is a federally registered
 trademark of Gaussian, Inc.
  
 This software contains proprietary and confidential information,
 including trade secrets, belonging to Gaussian, Inc.
  
 This software is provided under written license and may be
 used, copied, transmitted, or stored only in accord with that
 written license.
  
 The following legend is applicable only to US Government
 contracts under FAR:
  
                    RESTRICTED RIGHTS LEGEND
  
 Use, reproduction and disclosure by the US Government is
 subject to restrictions as set forth in subparagraphs (a)
 and (c) of the Commercial Computer Software - Restricted
 Rights clause in FAR 52.227-19.
  
 Gaussian, Inc.
 340 Quinnipiac St., Bldg. 40, Wallingford CT 06492
  
  
 ---------------------------------------------------------------
 Warning -- This program may not be used in any manner that
 competes with the business of Gaussian, Inc. or will provide
 assistance to any competitor of Gaussian, Inc.  The licensee
 of this program is prohibited from giving any competitor of
 Gaussian, Inc. access to this program.  By using this program,
 the user acknowledges that Gaussian, Inc. is engaged in the
 business of creating and licensing software in the field of
 computational chemistry and represents and warrants to the
 licensee that it is not a competitor of Gaussian, Inc. and that
 it will not use this program in any manner prohibited above.
 ---------------------------------------------------------------
  

 Cite this work as:
 Gaussian 16, Revision B.01,
 M. J. Frisch, G. W. Trucks, H. B. Schlegel, G. E. Scuseria, 
 M. A. Robb, J. R. Cheeseman, G. Scalmani, V. Barone, 
 G. A. Petersson, H. Nakatsuji, X. Li, M. Caricato, A. V. Marenich, 
 J. Bloino, B. G. Janesko, R. Gomperts, B. Mennucci, H. P. Hratchian, 
 J. V. Ortiz, A. F. Izmaylov, J. L. Sonnenberg, D. Williams-Young, 
 F. Ding, F. Lipparini, F. Egidi, J. Goings, B. Peng, A. Petrone, 
 T. Henderson, D. Ranasinghe, V. G. Zakrzewski, J. Gao, N. Rega, 
 G. Zheng, W. Liang, M. Hada, M. Ehara, K. Toyota, R. Fukuda, 
 J. Hasegawa, M. Ishida, T. Nakajima, Y. Honda, O. Kitao, H. Nakai, 
 T. Vreven, K. Throssell, J. A. Montgomery, Jr., J. E. Peralta, 
 F. Ogliaro, M. J. Bearpark, J. J. Heyd, E. N. Brothers, K. N. Kudin, 
 V. N. Staroverov, T. A. Keith, R. Kobayashi, J. Normand, 
 K. Raghavachari, A. P. Rendell, J. C. Burant, S. S. Iyengar, 
 J. Tomasi, M. Cossi, J. M. Millam, M. Klene, C. Adamo, R. Cammi, 
 J. W. Ochterski, R. L. Martin, K. Morokuma, O. Farkas, 
 J. B. Foresman, and D. J. Fox, Gaussian, Inc., Wallingford CT, 2016.
 
 ******************************************
 Gaussian 16:  EM64L-G16RevB.01 20-Dec-2017
                 3-Feb-2020 
 ******************************************
 %chk=CHEMBL231079_opt.chk
 %nprocshared=20
 Will use up to   20 processors via shared memory.
 ----------------------------------------------------------------------
 # b3lyp/def2svp scf=(maxcycle=512, xqc) pop=(full,mbs,hirshfeld,nbo6re
 ad)
 ----------------------------------------------------------------------
 1/38=1,163=2,172=1/1;
 2/12=2,17=6,18=5,40=1/2;
 3/5=43,7=101,11=2,25=1,30=1,74=-5/1,2,3;
 4//1;
 5/5=2,7=512,8=3,13=1,38=5/2,8;
 6/7=3,27=100,28=1,40=2,79=1,113=1,114=1,124=2103/1,12;
 99/5=1,9=1/99;
 ----
 None
 ----
 Symbolic Z-matrix:
 Charge =  1 Multiplicity = 2
 C                     0.        0.        0. 
 H                    -0.64458  -0.76718  -0.40871 
 H                    -0.34609   0.97258  -0.32466 
 H                    -0.0221   -0.04843   1.08086 
 H                     1.01277  -0.15697  -0.34748 
 
                          Input orientation:                          
 ---------------------------------------------------------------------
 Center     Atomic      Atomic             Coordinates (Angstroms)
 Number     Number       Type             X           Y           Z
 ---------------------------------------------------------------------
      1          6           0        0.000000    0.000000    0.000000
      2          1           0       -0.644580   -0.767180   -0.408710
      3          1           0       -0.346090    0.972580   -0.324660
      4          1           0       -0.022100   -0.048430    1.080860
      5          1           0        1.012770   -0.156970   -0.347480
 ---------------------------------------------------------------------
                    Distance matrix (angstroms):
                    1          2          3          4          5
     1  C    0.000000
     2  H    1.082170   0.000000
     3  H    1.082171   1.767180   0.000000
     4  H    1.082170   1.767173   1.767178   0.000000
     5  H    1.082167   1.767177   1.767174   1.767171   0.000000
 Stoichiometry    CH4(1+,2)
 Framework group  C1[X(CH4)]
 Deg. of freedom     9
 Full point group                 C1      NOp   1
 Largest Abelian subgroup         C1      NOp   1
 Largest concise Abelian subgroup C1      NOp   1
                         Standard orientation:                         
 ---------------------------------------------------------------------
 Center     Atomic      Atomic             Coordinates (Angstroms)
 Number     Number       Type             X           Y           Z
 ---------------------------------------------------------------------
      1          6           0        0.000000    0.000001   -0.000001
      2          1           0       -0.771611    0.696994   -0.299849
      3          1           0        0.894873    0.546096    0.268471
      4          1           0       -0.342423   -0.572591    0.852042
      5          1           0        0.219159   -0.670502   -0.820659
 ---------------------------------------------------------------------
 Rotational constants (GHZ):         160.5735988         160.5730831         160.5725081
 Standard basis: def2SVP (5D, 7F)
 There are    35 symmetry adapted cartesian basis functions of A   symmetry.
 There are    34 symmetry adapted basis functions of A   symmetry.
    34 basis functions,    53 primitive gaussians,    35 cartesian basis functions
     5 alpha electrons        4 beta electrons
       nuclear repulsion energy        13.5326059409 Hartrees.
 NAtoms=    5 NActive=    5 NUniq=    5 SFac= 1.00D+00 NAtFMM=   60 NAOKFM=F Big=F
 Integral buffers will be    131072 words long.
 Raffenetti 2 integral format.
 Two-electron integral symmetry is turned on.
 One-electron integrals computed using PRISM.
   1 Symmetry operations used in ECPInt.
 ECPInt:  NShTT=     171 NPrTT=     553 LenC2=     172 LenP2D=     539.
 LDataN:  DoStor=T MaxTD1= 4 Len=   56
 NBasis=    34 RedAO= T EigKep=  1.36D-02  NBF=    34
 NBsUse=    34 1.00D-06 EigRej= -1.00D+00 NBFU=    34
 ExpMin= 1.22D-01 ExpMax= 1.24D+03 ExpMxC= 1.86D+02 IAcc=3 IRadAn=         5 AccDes= 0.00D+00
 Harris functional with IExCor=  402 and IRadAn=       5 diagonalized for initial guess.
 HarFok:  IExCor=  402 AccDes= 0.00D+00 IRadAn=         5 IDoV= 1 UseB2=F ITyADJ=14
 ICtDFT=  3500011 ScaDFX=  1.000000  1.000000  1.000000  1.000000
 FoFCou: FMM=F IPFlag=           0 FMFlag=      100000 FMFlg1=           0
         NFxFlg=           0 DoJE=T BraDBF=F KetDBF=T FulRan=T
         wScrn=  0.000000 ICntrl=       500 IOpCl=  0 I1Cent=   200000004 NGrid=           0
         NMat0=    1 NMatS0=      1 NMatT0=    0 NMatD0=    1 NMtDS0=    0 NMtDT0=    0
 Petite list used in FoFCou.
 Initial guess <Sx>= 0.0000 <Sy>= 0.0000 <Sz>= 0.5000 <S**2>= 0.7500 S= 0.5000
 Keep R1 and R2 ints in memory in canonical form, NReq=17635263.
 Requested convergence on RMS density matrix=1.00D-08 within 128 cycles.
 Requested convergence on MAX density matrix=1.00D-06.
 Requested convergence on             energy=1.00D-06.
 No special actions if energy rises.
 Integral accuracy reduced to 1.0D-05 until final iterations.
 Rare condition: small coef for last iteration:  0.000D+00
 Rare condition: small coef for last iteration:  0.000D+00
 Initial convergence to 1.0D-05 achieved.  Increase integral accuracy.
 SCF Done:  E(UB3LYP) =  -39.9660423124     A.U. after   25 cycles
            NFock= 25  Conv=0.23D-08     -V/T= 2.0063
 <Sx>= 0.0000 <Sy>= 0.0000 <Sz>= 0.5000 <S**2>= 0.7528 S= 0.5014
 <L.S>= 0.000000000000E+00
 Annihilation of the first spin contaminant:
 S**2 before annihilation     0.7528,   after     0.7500
 QCSCF skips out because SCF is already converged.

 **********************************************************************

            Population analysis using the SCF Density.

 **********************************************************************

 Orbital symmetries:
 Alpha Orbitals:
       Occupied  (A) (A) (A) (A) (A)
       Virtual   (A) (A) (A) (A) (A) (A) (A) (A) (A) (A) (A) (A)
                 (A) (A) (A) (A) (A) (A) (A) (A) (A) (A) (A) (A)
                 (A) (A) (A) (A) (A)
 Beta  Orbitals:
       Occupied  (A) (A) (A) (A)
       Virtual   (A) (A) (A) (A) (A) (A) (A) (A) (A) (A) (A) (A)
                 (A) (A) (A) (A) (A) (A) (A) (A) (A) (A) (A) (A)
                 (A) (A) (A) (A) (A) (A)
 The electronic state is 2-A.
 Alpha  occ. eigenvalues --  -10.57410  -1.08793  -0.80271  -0.77222  -0.77222
 Alpha virt. eigenvalues --   -0.18636  -0.14350  -0.13788  -0.13788   0.09286
 Alpha virt. eigenvalues --    0.09629   0.09629   0.33436   0.34588   0.35991
 Alpha virt. eigenvalues --    0.35991   0.45591   0.70167   0.72154   1.17664
 Alpha virt. eigenvalues --    1.17664   1.17948   1.40173   1.40174   1.41471
 Alpha virt. eigenvalues --    1.77760   1.77816   1.77816   2.14448   2.17459
 Alpha virt. eigenvalues --    2.25391   2.53714   2.53714   2.54319
  Beta  occ. eigenvalues --  -10.56601  -1.03760  -0.74489  -0.74489
  Beta virt. eigenvalues --   -0.64998  -0.17588  -0.12455  -0.12455  -0.11553
  Beta virt. eigenvalues --    0.11262   0.11537   0.11537   0.36074   0.37372
  Beta virt. eigenvalues --    0.37372   0.38828   0.47433   0.73962   0.75202
  Beta virt. eigenvalues --    1.20612   1.20612   1.20739   1.43189   1.43720
  Beta virt. eigenvalues --    1.43720   1.80535   1.80642   1.80642   2.18329
  Beta virt. eigenvalues --    2.20000   2.28616   2.56819   2.56819   2.56959
     Alpha Molecular Orbital Coefficients:
                           1         2         3         4         5
                           O         O         O         O         O
     Eigenvalues --   -10.57410  -1.08793  -0.80271  -0.77222  -0.77222
   1 1   C  1S          0.98756  -0.26160   0.00000   0.00000  -0.00000
   2        2S          0.05326   0.52635  -0.00000  -0.00000   0.00000
   3        3S         -0.04199   0.09907   0.00000  -0.00000   0.00000
   4        4PX        -0.00000  -0.00000   0.22295   0.35611   0.24384
   5        4PY        -0.00000  -0.00000  -0.01069  -0.26762   0.39974
   6        4PZ         0.00000   0.00000   0.45225  -0.18188  -0.11075
   7        5PX         0.00000  -0.00000   0.08366   0.12725   0.08713
   8        5PY         0.00000   0.00000  -0.00401  -0.09563   0.14285
   9        5PZ        -0.00000   0.00000   0.16970  -0.06499  -0.03958
  10        6D 0        0.00028   0.00851   0.00040   0.00633  -0.01367
  11        6D+1        0.00027   0.00827  -0.00137  -0.00474   0.01248
  12        6D-1       -0.00001  -0.00040  -0.00910   0.01808   0.00767
  13        6D+2        0.00007   0.00203   0.00389  -0.00279   0.00825
  14        6D-2       -0.00001  -0.00020   0.01825   0.00911   0.00330
  15 2   H  1S         -0.00363   0.18796  -0.22821  -0.32772   0.09965
  16        2S          0.00803   0.01952  -0.02811  -0.05703   0.01734
  17        3PX        -0.00196   0.01881  -0.00759  -0.00835   0.01347
  18        3PY         0.00180  -0.01854   0.01407   0.01195   0.00625
  19        3PZ        -0.00071   0.00434   0.01088  -0.00795  -0.00274
  20 3   H  1S         -0.00363   0.18796   0.22820   0.09966   0.32772
  21        2S          0.00803   0.01952   0.02810   0.01734   0.05703
  22        3PX         0.00228  -0.02210  -0.01015   0.00406  -0.01544
  23        3PY         0.00141  -0.01468  -0.01175  -0.01322  -0.00373
  24        3PZ         0.00062  -0.00350   0.01153  -0.00607  -0.00482
  25 4   H  1S         -0.00363   0.18796   0.22823  -0.09965  -0.32770
  26        2S          0.00803   0.01952   0.02811  -0.01734  -0.05703
  27        3PX        -0.00092   0.01096   0.01555   0.00704  -0.00565
  28        3PY        -0.00148   0.01521   0.01149  -0.01336  -0.00420
  29        3PZ         0.00213  -0.01909  -0.00059  -0.00003   0.01503
  30 5   H  1S         -0.00363   0.18796  -0.22823   0.32770  -0.09966
  31        2S          0.00803   0.01952  -0.02811   0.05703  -0.01734
  32        3PX         0.00060  -0.00767   0.01299   0.00145   0.01049
  33        3PY        -0.00173   0.01800  -0.01433   0.01148   0.00639
  34        3PZ        -0.00205   0.01826   0.00006   0.01191  -0.00878
                           6         7         8         9        10
                           V         V         V         V         V
     Eigenvalues --    -0.18636  -0.14350  -0.13788  -0.13788   0.09286
   1 1   C  1S         -0.17345  -0.00000   0.00000   0.00000  -0.00000
   2        2S          0.42942   0.00000  -0.00000  -0.00000   0.00000
   3        3S          2.35421   0.00002  -0.00001  -0.00002  -0.00001
   4        4PX        -0.00000  -0.19767  -0.26518  -0.28378  -0.14791
   5        4PY        -0.00000   0.00953  -0.31939   0.29222   0.00711
   6        4PZ         0.00001  -0.40101   0.12312   0.14683  -0.30022
   7        5PX        -0.00001  -0.47824  -0.70320  -0.75256   0.51789
   8        5PY        -0.00000   0.02305  -0.84697   0.77493  -0.02490
   9        5PZ         0.00001  -0.97023   0.32651   0.38937   1.05113
  10        6D 0        0.00587   0.00081  -0.02625   0.01737  -0.00173
  11        6D+1        0.00570  -0.00278   0.02428  -0.01371   0.00593
  12        6D-1       -0.00027  -0.01843   0.02152   0.03494   0.03927
  13        6D+2        0.00140   0.00788   0.01616  -0.00836  -0.01678
  14        6D-2       -0.00013   0.03697   0.00969   0.01779  -0.07874
  15 2   H  1S         -0.06619  -0.18183   0.03633  -0.25049   0.46994
  16        2S         -0.92962  -1.01248   0.20883  -1.43969  -0.11228
  17        3PX         0.01346   0.01132  -0.01874   0.01420   0.00638
  18        3PY        -0.01166  -0.01770  -0.01365  -0.00990   0.01103
  19        3PZ         0.00619  -0.00993   0.00476   0.02139   0.03470
  20 3   H  1S         -0.06619   0.18179   0.25051   0.03635  -0.46987
  21        2S         -0.92961   1.01224   1.43984   0.20896   0.11225
  22        3PX        -0.01552   0.01452   0.01977  -0.01049   0.00426
  23        3PY        -0.00908   0.01462   0.00273   0.01884  -0.01032
  24        3PZ        -0.00567  -0.01075   0.01894   0.00977   0.03524
  25 4   H  1S         -0.06620   0.18186  -0.25047  -0.03636  -0.47022
  26        2S         -0.92964   1.01261  -1.43956  -0.20896   0.11241
  27        3PX         0.00513  -0.01764  -0.00293  -0.01379   0.02552
  28        3PY         0.00958  -0.01447   0.00382   0.01900   0.00890
  29        3PZ        -0.01541   0.00443  -0.02709   0.00309   0.02521
  30 5   H  1S         -0.06619  -0.18182  -0.03638   0.25049   0.47015
  31        2S         -0.92961  -1.01241  -0.20909   1.43972  -0.11236
  32        3PX        -0.00307  -0.01444  -0.01545  -0.00850   0.02340
  33        3PY         0.01116   0.01785  -0.01381  -0.00881  -0.01247
  34        3PZ         0.01489   0.00361   0.01145  -0.02464   0.02575
                          11        12        13        14        15
                           V         V         V         V         V
     Eigenvalues --     0.09629   0.09629   0.33436   0.34588   0.35991
   1 1   C  1S          0.00000   0.00000   0.28427  -0.00002  -0.00001
   2        2S         -0.00000  -0.00000  -1.69567   0.00010   0.00004
   3        3S         -0.00001   0.00000   4.16767  -0.00026  -0.00010
   4        4PX         0.00052  -0.27505   0.00000  -0.38900   0.60143
   5        4PY        -0.30650  -0.00379   0.00001   0.01870   0.60687
   6        4PZ        -0.00752   0.13540  -0.00006  -0.78906  -0.28212
   7        5PX        -0.00179   0.95162  -0.00000   0.78239  -1.20612
   8        5PY         1.06043   0.01309  -0.00001  -0.03761  -1.21704
   9        5PZ         0.02602  -0.46847   0.00012   1.58702   0.56577
  10        6D 0        0.06652   0.01134  -0.00823   0.00257   0.07352
  11        6D+1       -0.05808  -0.01418  -0.00801  -0.00879  -0.06864
  12        6D-1        0.01760  -0.08618   0.00038  -0.05823  -0.07338
  13        6D+2       -0.03753  -0.01062  -0.00197   0.02490  -0.04587
  14        6D-2        0.01094  -0.04203   0.00019   0.11683  -0.03357
  15 2   H  1S         -0.52222   0.41670   0.44691  -0.34770  -0.02507
  16        2S          0.21415  -0.17084  -1.17194   1.26206   0.09610
  17        3PX         0.01656   0.03010  -0.06890   0.05905   0.04214
  18        3PY         0.03444   0.01168   0.06045  -0.07225   0.02999
  19        3PZ         0.00983  -0.02825  -0.03020  -0.01332  -0.01384
  20 3   H  1S         -0.41658  -0.52238   0.44693   0.34762  -0.45714
  21        2S          0.17083   0.21418  -1.17201  -1.26180   1.75270
  22        3PX        -0.01530   0.02428   0.07958   0.07200  -0.10402
  23        3PY         0.03974  -0.01018   0.04719   0.05850  -0.04749
  24        3PZ        -0.00522  -0.02938   0.02747  -0.01662  -0.06333
  25 4   H  1S          0.41653   0.52210   0.44695   0.34766   0.45708
  26        2S         -0.17082  -0.21413  -1.17210  -1.26198  -1.75251
  27        3PX        -0.00444   0.03791  -0.02757  -0.05813  -0.01403
  28        3PY         0.03922  -0.01082  -0.04969  -0.05916  -0.05179
  29        3PZ         0.01682  -0.00176   0.07802   0.04476   0.11918
  30 5   H  1S          0.52226  -0.41641   0.44689  -0.34768   0.02508
  31        2S         -0.21415   0.17078  -1.17189   1.26200  -0.09617
  32        3PX         0.00294   0.04097   0.01689  -0.04517   0.03721
  33        3PY         0.03509   0.01115  -0.05796   0.07159   0.03023
  34        3PZ        -0.01780  -0.00622  -0.07529   0.04146  -0.02385
                          16        17        18        19        20
                           V         V         V         V         V
     Eigenvalues --     0.35991   0.45591   0.70167   0.72154   1.17664
   1 1   C  1S         -0.00001   0.11308   0.00522   0.00000   0.00000
   2        2S          0.00003  -1.55495  -0.00809  -0.00001  -0.00000
   3        3S         -0.00009   5.78250  -0.03927   0.00002  -0.00000
   4        4PX         0.53820   0.00000  -0.00000  -0.00000  -0.00525
   5        4PY        -0.66404  -0.00000  -0.00000  -0.00000   0.00055
   6        4PZ        -0.28107  -0.00000   0.00000  -0.00000   0.00261
   7        5PX        -1.07932  -0.00001  -0.00000   0.00000   0.00620
   8        5PY         1.33167  -0.00001  -0.00000  -0.00000  -0.00065
   9        5PZ         0.56366   0.00001  -0.00000  -0.00000  -0.00307
  10        6D 0       -0.05871   0.00218   0.28609   0.06556   0.00007
  11        6D+1        0.04729   0.00212   0.27820  -0.15224  -0.00012
  12        6D-1       -0.09829  -0.00010  -0.01334   0.02682  -0.00138
  13        6D+2        0.02921   0.00052   0.06842   0.34316  -0.00010
  14        6D-2       -0.05036  -0.00005  -0.00658  -0.07268  -0.00068
  15 2   H  1S          0.45710  -0.65247   0.00288   0.00000   0.00757
  16        2S         -1.75257  -1.01730   0.00800  -0.00000  -0.00506
  17        3PX        -0.08891   0.02377  -0.01280  -0.25126   0.18950
  18        3PY         0.06743  -0.02226  -0.15149  -0.22718   0.35859
  19        3PZ        -0.06806   0.00772  -0.31755   0.11851   0.31748
  20 3   H  1S         -0.02507  -0.65247   0.00288  -0.00000  -0.00765
  21        2S          0.09614  -1.01729   0.00800  -0.00000   0.00511
  22        3PX         0.02413  -0.02771  -0.01561   0.20120   0.11511
  23        3PY        -0.04379  -0.01752  -0.13499  -0.27771  -0.37227
  24        3PZ        -0.01916  -0.00672   0.32478  -0.10576   0.34144
  25 4   H  1S          0.02507  -0.65248   0.00288  -0.00000   0.00766
  26        2S         -0.09613  -1.01731   0.00800  -0.00000  -0.00511
  27        3PX         0.02907   0.01188   0.26955  -0.20120  -0.20764
  28        3PY        -0.04403   0.01828   0.12282   0.27771  -0.35671
  29        3PZ        -0.00915  -0.02539   0.19029   0.10577  -0.31305
  30 5   H  1S         -0.45712  -0.65248   0.00288  -0.00000  -0.00757
  31        2S          1.75266  -1.01730   0.00800  -0.00000   0.00506
  32        3PX         0.00107  -0.00794  -0.24114   0.25126  -0.12966
  33        3PY         0.06312   0.02150   0.16367   0.22718   0.37383
  34        3PZ         0.11446   0.02439  -0.19752  -0.11852  -0.32967
                          21        22        23        24        25
                           V         V         V         V         V
     Eigenvalues --     1.17664   1.17948   1.40173   1.40174   1.41471
   1 1   C  1S         -0.00000  -0.00000  -0.00000   0.00000   0.00000
   2        2S         -0.00000   0.00000   0.00000   0.00000  -0.00000
   3        3S          0.00000  -0.00000  -0.00002  -0.00001  -0.00000
   4        4PX         0.00055   0.00000  -0.13821   0.11326  -0.08614
   5        4PY         0.00586  -0.00000  -0.12783  -0.15271   0.00413
   6        4PZ        -0.00013  -0.00000   0.06510  -0.05942  -0.17479
   7        5PX        -0.00065  -0.00001   0.64686  -0.53010   0.41957
   8        5PY        -0.00692  -0.00000   0.59830   0.71476  -0.02008
   9        5PZ         0.00016  -0.00000  -0.30468   0.27813   0.85130
  10        6D 0       -0.00106  -0.00000  -0.19982  -0.17432   0.00699
  11        6D+1        0.00093   0.00000   0.18747   0.14156  -0.02400
  12        6D-1       -0.00013  -0.00000   0.21864  -0.26772  -0.15908
  13        6D+2        0.00061  -0.00000   0.12559   0.08786   0.06803
  14        6D-2       -0.00010  -0.00000   0.10071  -0.13774   0.31907
  15 2   H  1S          0.00766  -0.00000  -0.00463  -0.41292   0.28059
  16        2S         -0.00511  -0.00000  -0.00132  -0.11861   0.09906
  17        3PX        -0.16522   0.36164  -0.30488   0.27803  -0.21148
  18        3PY         0.04000   0.32697  -0.28251  -0.35634   0.01935
  19        3PZ         0.48940  -0.17058   0.14401  -0.10862  -0.41140
  20 3   H  1S          0.00757   0.00000  -0.41291   0.00470  -0.28061
  21        2S         -0.00506   0.00000  -0.11860   0.00135  -0.09907
  22        3PX         0.16869   0.28961  -0.33645   0.25046  -0.21320
  23        3PY        -0.02184  -0.39970  -0.29664  -0.33707   0.00197
  24        3PZ        -0.48612  -0.15231   0.12200  -0.13098  -0.41096
  25 4   H  1S         -0.00757  -0.00000   0.41286  -0.00463  -0.28067
  26        2S          0.00506   0.00000   0.11858  -0.00133  -0.09908
  27        3PX         0.48782  -0.28955  -0.30725   0.25013  -0.19591
  28        3PY        -0.03721   0.39976  -0.29804  -0.33706   0.01762
  29        3PZ         0.16104   0.15228   0.18122  -0.13164  -0.41913
  30 5   H  1S         -0.00766   0.00000   0.00469   0.41285   0.28069
  31        2S          0.00511  -0.00000   0.00135   0.11859   0.09909
  32        3PX        -0.48786  -0.36169  -0.30522   0.24884  -0.19764
  33        3PY         0.05553  -0.32703  -0.28249  -0.35493   0.00023
  34        3PZ        -0.16515   0.17060   0.14334  -0.16783  -0.41869
                          26        27        28        29        30
                           V         V         V         V         V
     Eigenvalues --     1.77760   1.77816   1.77816   2.14448   2.17459
   1 1   C  1S         -0.00000  -0.00000  -0.00000  -0.01088   0.00000
   2        2S         -0.00000   0.00000   0.00000   0.07867  -0.00002
   3        3S          0.00001  -0.00001  -0.00000   0.07785  -0.00001
   4        4PX         0.24750   0.41909  -0.24763  -0.00001   0.00000
   5        4PY        -0.01305   0.28046   0.46264  -0.00000  -0.00000
   6        4PZ         0.50872  -0.19638   0.13228  -0.00000  -0.00000
   7        5PX         0.36633   0.65328  -0.38605  -0.00001   0.00000
   8        5PY        -0.01941   0.43727   0.72130  -0.00000  -0.00000
   9        5PZ         0.75350  -0.30640   0.20628  -0.00000  -0.00000
  10        6D 0       -0.00899   0.19610   0.23212   0.79442   0.19086
  11        6D+1        0.02882  -0.18767  -0.19289   0.77249  -0.44329
  12        6D-1        0.18728  -0.29304   0.26518  -0.03705   0.07811
  13        6D+2       -0.07868  -0.12748  -0.12121   0.19000   0.99912
  14        6D-2       -0.37084  -0.14004   0.13897  -0.01827  -0.21161
  15 2   H  1S          0.11718   0.02341  -0.16084  -0.02534   0.00001
  16        2S          0.42609   0.08557  -0.58804  -0.02046   0.00001
  17        3PX         0.21215  -0.38520  -0.37071  -0.01224   0.32522
  18        3PY        -0.41676  -0.40771   0.06099   0.22828   0.29403
  19        3PZ        -0.35945   0.26240  -0.40579   0.41165  -0.15339
  20 3   H  1S         -0.11661  -0.16136  -0.02260  -0.02534   0.00001
  21        2S         -0.42401  -0.58996  -0.08262  -0.02045   0.00000
  22        3PX         0.28564   0.28129   0.39062   0.05475  -0.26042
  23        3PY         0.34996   0.14338  -0.46542   0.20058   0.35943
  24        3PZ        -0.37965   0.45359  -0.11978  -0.42248   0.13690
  25 4   H  1S         -0.11839   0.16002   0.02288  -0.02534   0.00001
  26        2S         -0.43052   0.58508   0.08363  -0.02046   0.00000
  27        3PX        -0.47864  -0.19112   0.32530  -0.37208   0.26042
  28        3PY        -0.34353   0.16186  -0.46142  -0.18536  -0.35943
  29        3PZ        -0.01269  -0.49361  -0.25452  -0.22115  -0.13690
  30 5   H  1S          0.11781  -0.02206   0.16056  -0.02534   0.00000
  31        2S          0.42843  -0.08068   0.58703  -0.02046  -0.00000
  32        3PX        -0.40100  -0.45493   0.09805   0.32956  -0.32522
  33        3PY         0.43076  -0.39969   0.03754  -0.24350  -0.29404
  34        3PZ        -0.03476   0.12994   0.54312   0.23198   0.15339
                          31        32        33        34
                           V         V         V         V
     Eigenvalues --     2.25391   2.53714   2.53714   2.54319
   1 1   C  1S         -0.30960  -0.00000   0.00000   0.00000
   2        2S          1.97181   0.00002  -0.00002  -0.00003
   3        3S          1.10384   0.00001  -0.00000  -0.00001
   4        4PX        -0.00001   0.95225  -0.38288   0.49698
   5        4PY        -0.00001   0.43768   1.05677  -0.02366
   6        4PZ         0.00001  -0.45887   0.21343   1.00879
   7        5PX        -0.00000   0.51430  -0.20679   0.27105
   8        5PY        -0.00000   0.23639   0.57075  -0.01291
   9        5PZ         0.00001  -0.24783   0.11527   0.55018
  10        6D 0       -0.03944  -0.49179  -0.80362   0.02649
  11        6D+1       -0.03836   0.48479   0.67943  -0.09119
  12        6D-1        0.00182   1.02607  -0.67466  -0.60503
  13        6D+2       -0.00942   0.33220   0.43148   0.25869
  14        6D-2        0.00091   0.48812  -0.35991   1.21301
  15 2   H  1S         -0.58823   0.28179  -0.93381   0.68749
  16        2S         -0.29966   0.11484  -0.38057   0.27679
  17        3PX        -0.57558   0.25796  -0.69690   0.52140
  18        3PY         0.50874  -0.15859   0.66840  -0.44362
  19        3PZ        -0.24512   0.05396  -0.25328   0.25509
  20 3   H  1S         -0.58823  -0.93378  -0.28146  -0.68766
  21        2S         -0.29966  -0.38056  -0.11471  -0.27686
  22        3PX         0.66544   0.83686   0.21408   0.59972
  23        3PY         0.39748   0.50128   0.20379   0.34494
  24        3PZ         0.22225   0.21191   0.08391   0.23523
  25 4   H  1S         -0.58825   0.93348   0.28183  -0.68792
  26        2S         -0.29967   0.38043   0.11486  -0.27696
  27        3PX        -0.23655   0.35101   0.06778  -0.18535
  28        3PY        -0.41806   0.52442   0.21100  -0.36494
  29        3PZ         0.64768  -0.77308  -0.21335   0.60568
  30 5   H  1S         -0.58823  -0.28151   0.93346   0.68812
  31        2S         -0.29966  -0.11473   0.38042   0.27704
  32        3PX         0.14668   0.11133  -0.21107  -0.10716
  33        3PY        -0.48817  -0.15139   0.64489   0.42416
  34        3PZ        -0.62479  -0.24314   0.73171   0.58592
     Beta Molecular Orbital Coefficients:
                           1         2         3         4         5
                           O         O         O         O         V
     Eigenvalues --   -10.56601  -1.03760  -0.74489  -0.74489  -0.64998
   1 1   C  1S          0.98795  -0.26024   0.00000  -0.00000   0.00000
   2        2S          0.05161   0.51863  -0.00000   0.00000  -0.00000
   3        3S         -0.04068   0.12660  -0.00000   0.00000   0.00000
   4        4PX        -0.00000  -0.00000   0.34657   0.27713   0.19895
   5        4PY        -0.00000  -0.00000  -0.30483   0.38950  -0.00954
   6        4PZ         0.00000   0.00000  -0.17807  -0.12741   0.40355
   7        5PX         0.00000  -0.00000   0.13846   0.11071   0.08648
   8        5PY         0.00000  -0.00000  -0.12178   0.15561  -0.00415
   9        5PZ        -0.00000   0.00000  -0.07114  -0.05090   0.17540
  10        6D 0       -0.00032  -0.00635   0.00622  -0.01119   0.00038
  11        6D+1       -0.00031  -0.00618  -0.00480   0.01028  -0.00130
  12        6D-1        0.00001   0.00030   0.01484   0.00763  -0.00860
  13        6D+2       -0.00008  -0.00152  -0.00289   0.00681   0.00368
  14        6D-2        0.00001   0.00015   0.00751   0.00337   0.01726
  15 2   H  1S         -0.00354   0.17991  -0.30928   0.06951  -0.23457
  16        2S          0.00778   0.01920  -0.05545   0.01246  -0.06184
  17        3PX        -0.00188   0.01780  -0.00811   0.01203  -0.00660
  18        3PY         0.00168  -0.01571   0.00758   0.00753   0.01128
  19        3PZ        -0.00077   0.00762  -0.01211  -0.00210   0.00763
  20 3   H  1S         -0.00354   0.17991   0.06952   0.30929   0.23457
  21        2S          0.00778   0.01920   0.01246   0.05545   0.06184
  22        3PX         0.00218  -0.02058   0.00526  -0.01300  -0.00865
  23        3PY         0.00131  -0.01227  -0.01165  -0.00161  -0.00937
  24        3PZ         0.00069  -0.00692  -0.00653  -0.00991   0.00815
  25 4   H  1S         -0.00354   0.17991  -0.06951  -0.30928   0.23458
  26        2S          0.00778   0.01920  -0.01246  -0.05545   0.06184
  27        3PX        -0.00080   0.00728   0.00816  -0.00008   0.01191
  28        3PY        -0.00138   0.01291  -0.01179  -0.00223   0.00922
  29        3PZ         0.00210  -0.02006  -0.00064   0.01627  -0.00154
  30 5   H  1S         -0.00354   0.17991   0.30928  -0.06952  -0.23457
  31        2S          0.00778   0.01920   0.05545  -0.01246  -0.06184
  32        3PX         0.00050  -0.00450   0.00480   0.00913   0.00986
  33        3PY        -0.00161   0.01508   0.00696   0.00767  -0.01144
  34        3PZ        -0.00202   0.01935   0.01408  -0.00798  -0.00102
                           6         7         8         9        10
                           V         V         V         V         V
     Eigenvalues --    -0.17588  -0.12455  -0.12455  -0.11553   0.11262
   1 1   C  1S         -0.16850  -0.00000  -0.00000   0.00000  -0.00000
   2        2S          0.39702   0.00000   0.00000  -0.00000   0.00000
   3        3S          2.44031   0.00001   0.00002  -0.00002  -0.00001
   4        4PX        -0.00000   0.25832   0.27678   0.18221  -0.14672
   5        4PY        -0.00000   0.31149  -0.28470  -0.00872   0.00705
   6        4PZ         0.00000  -0.12001  -0.14317   0.36958  -0.29773
   7        5PX        -0.00000   0.69653   0.74631   0.53300   0.49415
   8        5PY        -0.00000   0.83990  -0.76765  -0.02550  -0.02374
   9        5PZ         0.00001  -0.32359  -0.38605   1.08110   1.00276
  10        6D 0       -0.00302   0.02152  -0.01422  -0.00079  -0.00180
  11        6D+1       -0.00293  -0.01990   0.01122   0.00271   0.00618
  12        6D-1        0.00014  -0.01761  -0.02863   0.01793   0.04094
  13        6D+2       -0.00072  -0.01324   0.00685  -0.00767  -0.01750
  14        6D-2        0.00007  -0.00792  -0.01458  -0.03598  -0.08211
  15 2   H  1S         -0.05195  -0.03214   0.22062   0.14964   0.48078
  16        2S         -0.95534  -0.21657   1.48651   1.08082  -0.14901
  17        3PX         0.01143   0.01493  -0.01193  -0.00926   0.00572
  18        3PY        -0.00998   0.01066   0.00865   0.01592   0.01141
  19        3PZ         0.00510  -0.00377  -0.01685   0.01088   0.03402
  20 3   H  1S         -0.05195  -0.22061  -0.03214  -0.14965  -0.48073
  21        2S         -0.95533  -1.48644  -0.21659  -1.08091   0.14900
  22        3PX        -0.01319  -0.01649   0.00816  -0.01216   0.00354
  23        3PY        -0.00779  -0.00281  -0.01499  -0.01323  -0.01060
  24        3PZ        -0.00466  -0.01487  -0.00772   0.01162   0.03458
  25 4   H  1S         -0.05195   0.22061   0.03213  -0.14964  -0.48094
  26        2S         -0.95535   1.48649   0.21649  -1.08085   0.14906
  27        3PX         0.00449   0.00169   0.01081   0.01686   0.02545
  28        3PY         0.00820  -0.00369  -0.01511   0.01301   0.00921
  29        3PZ        -0.01300   0.02202  -0.00234  -0.00207   0.02424
  30 5   H  1S         -0.05194   0.03213  -0.22060   0.14966   0.48090
  31        2S         -0.95533   0.21651  -1.48643   1.08097  -0.14904
  32        3PX        -0.00273   0.01228   0.00626   0.01397   0.02326
  33        3PY         0.00957   0.01079   0.00778  -0.01615  -0.01281
  34        3PZ         0.01255  -0.00914   0.02004  -0.00133   0.02479
                          11        12        13        14        15
                           V         V         V         V         V
     Eigenvalues --     0.11537   0.11537   0.36074   0.37372   0.37372
   1 1   C  1S          0.00000   0.00000   0.29572   0.00000  -0.00002
   2        2S         -0.00000  -0.00000  -1.83394  -0.00002   0.00010
   3        3S         -0.00001   0.00000   4.63038   0.00003  -0.00026
   4        4PX         0.00603  -0.30422   0.00003  -0.57403   0.55371
   5        4PY        -0.33897  -0.01027  -0.00002  -0.62381  -0.63335
   6        4PZ        -0.01100   0.14968  -0.00004   0.26828  -0.28792
   7        5PX        -0.02109   1.06377  -0.00005   1.12183  -1.08212
   8        5PY         1.18528   0.03590   0.00004   1.21911   1.23775
   9        5PZ         0.03846  -0.52339   0.00007  -0.52429   0.56268
  10        6D 0        0.06089   0.01151   0.00665  -0.07838  -0.05793
  11        6D+1       -0.05308  -0.01397   0.00647   0.07289   0.04630
  12        6D-1        0.01757  -0.07883  -0.00032   0.07216  -0.10458
  13        6D+2       -0.03428  -0.01037   0.00159   0.04862   0.02846
  14        6D-2        0.01074  -0.03840  -0.00015   0.03280  -0.05344
  15 2   H  1S         -0.53113   0.40838   0.38411   0.04542   0.49130
  16        2S          0.10962  -0.08428  -1.23910  -0.15953  -1.72590
  17        3PX         0.01432   0.02791  -0.06885  -0.04839  -0.08737
  18        3PY         0.03061   0.01166   0.06065  -0.03002   0.06960
  19        3PZ         0.00770  -0.02426  -0.02972   0.01275  -0.06779
  20 3   H  1S         -0.40831  -0.53123   0.38409   0.49131  -0.04544
  21        2S          0.08428   0.10965  -1.23903  -1.72590   0.15964
  22        3PX        -0.01422   0.02205   0.07956   0.10558   0.02252
  23        3PY         0.03596  -0.00917   0.04736   0.04623  -0.04884
  24        3PZ        -0.00292  -0.02511   0.02699   0.06156  -0.02266
  25 4   H  1S          0.40828   0.53106   0.38410  -0.49130   0.04537
  26        2S         -0.08427  -0.10960  -1.23909   1.72590  -0.15938
  27        3PX        -0.00566   0.03318  -0.02795   0.01637   0.03078
  28        3PY         0.03556  -0.00970  -0.04984   0.05051  -0.04922
  29        3PZ         0.01442  -0.00255   0.07770  -0.11939  -0.00594
  30 5   H  1S          0.53116  -0.40821   0.38406  -0.04540  -0.49130
  31        2S         -0.10962   0.08424  -1.23893   0.15949   1.72591
  32        3PX         0.00319   0.03647   0.01724  -0.04014   0.00185
  33        3PY         0.03114   0.01125  -0.05817  -0.03042   0.06532
  34        3PZ        -0.01487  -0.00692  -0.07497   0.02947   0.11315
                          16        17        18        19        20
                           V         V         V         V         V
     Eigenvalues --     0.38828   0.47433   0.73962   0.75202   1.20612
   1 1   C  1S         -0.00001   0.08849   0.00000  -0.00639  -0.00000
   2        2S          0.00004  -1.39942  -0.00001   0.02964   0.00000
   3        3S         -0.00012   5.38093   0.00002  -0.05998  -0.00000
   4        4PX        -0.40201  -0.00000   0.00000   0.00000   0.00126
   5        4PY         0.01924  -0.00000  -0.00000  -0.00000  -0.00035
   6        4PZ        -0.81545  -0.00000   0.00000   0.00000  -0.00063
   7        5PX         0.76970  -0.00000   0.00000  -0.00000   0.00160
   8        5PY        -0.03683  -0.00001   0.00000   0.00000  -0.00044
   9        5PZ         1.56128   0.00001  -0.00000  -0.00000  -0.00081
  10        6D 0        0.00283   0.00092   0.06709   0.27341   0.00001
  11        6D+1       -0.00971   0.00089  -0.15584   0.26586  -0.00000
  12        6D-1       -0.06438  -0.00004   0.02746  -0.01275   0.00007
  13        6D+2        0.02754   0.00022   0.35123   0.06540  -0.00000
  14        6D-2        0.12917  -0.00002  -0.07439  -0.00629   0.00003
  15 2   H  1S         -0.33207  -0.69136  -0.00000  -0.00205   0.00207
  16        2S          1.20394  -0.90897  -0.00000   0.01443  -0.00048
  17        3PX         0.06507   0.03166  -0.24862  -0.01116   0.17138
  18        3PY        -0.08092  -0.02863  -0.22479  -0.15643   0.35683
  19        3PZ        -0.01717   0.01224   0.11728  -0.32349   0.38435
  20 3   H  1S          0.33209  -0.69136  -0.00000  -0.00205  -0.00155
  21        2S         -1.20398  -0.90897  -0.00000   0.01443   0.00036
  22        3PX         0.07960  -0.03672   0.19909  -0.01816   0.14623
  23        3PY         0.06562  -0.02244  -0.27478  -0.13922  -0.37154
  24        3PZ        -0.02087  -0.01095  -0.10467   0.33096   0.26490
  25 4   H  1S          0.33208  -0.69137  -0.00000  -0.00205   0.00156
  26        2S         -1.20396  -0.90897  -0.00000   0.01444  -0.00036
  27        3PX        -0.06626   0.01411  -0.19910   0.27608  -0.12832
  28        3PY        -0.06626   0.02352   0.27479   0.12685  -0.35786
  29        3PZ         0.04793  -0.03492   0.10465   0.19218  -0.29097
  30 5   H  1S         -0.33212  -0.69137  -0.00000  -0.00205  -0.00208
  31        2S          1.20413  -0.90897  -0.00000   0.01444   0.00048
  32        3PX        -0.05173  -0.00905   0.24863  -0.24676  -0.19415
  33        3PY         0.08029   0.02755   0.22479   0.16880   0.37390
  34        3PZ         0.04424   0.03363  -0.11726  -0.19964  -0.35584
                          21        22        23        24        25
                           V         V         V         V         V
     Eigenvalues --     1.20612   1.20739   1.43189   1.43720   1.43720
   1 1   C  1S          0.00000  -0.00000   0.00000   0.00000   0.00000
   2        2S         -0.00000   0.00000  -0.00000   0.00000   0.00000
   3        3S          0.00000  -0.00000  -0.00000  -0.00002  -0.00001
   4        4PX         0.00032   0.00000  -0.08388  -0.14001   0.10097
   5        4PY         0.00141  -0.00000   0.00403  -0.11420  -0.15490
   6        4PZ        -0.00013   0.00000  -0.16996   0.06639  -0.05350
   7        5PX         0.00041  -0.00001   0.41061   0.67719  -0.48837
   8        5PY         0.00179   0.00000  -0.01973   0.55234   0.74921
   9        5PZ        -0.00016  -0.00000   0.83198  -0.32111   0.25880
  10        6D 0       -0.00005  -0.00000   0.00727  -0.18055  -0.17826
  11        6D+1        0.00005   0.00000  -0.02494   0.17069   0.14624
  12        6D-1        0.00000  -0.00000  -0.16512   0.22465  -0.24284
  13        6D+2        0.00003  -0.00000   0.07070   0.11473   0.09134
  14        6D-2       -0.00000  -0.00000   0.33165   0.10418  -0.12547
  15 2   H  1S         -0.00156  -0.00000   0.28710   0.02013  -0.40079
  16        2S          0.00036  -0.00000   0.08761   0.00637  -0.12662
  17        3PX         0.19024   0.36155  -0.21275  -0.32715   0.25674
  18        3PY         0.02038   0.32676   0.02474  -0.26503  -0.37923
  19        3PZ        -0.43909  -0.17082  -0.40329   0.15410  -0.11425
  20 3   H  1S         -0.00207   0.00000  -0.28708  -0.40079  -0.02029
  21        2S          0.00048   0.00000  -0.08761  -0.12661  -0.00641
  22        3PX        -0.14539   0.28952  -0.21546  -0.35092   0.23389
  23        3PY        -0.02529  -0.39948  -0.00261  -0.28033  -0.36148
  24        3PZ         0.53149  -0.15244  -0.40260   0.14509  -0.12509
  25 4   H  1S          0.00207  -0.00000  -0.28686   0.40095   0.02013
  26        2S         -0.00048  -0.00000  -0.08753   0.12667   0.00636
  27        3PX        -0.51047  -0.28950  -0.18826  -0.33393   0.23476
  28        3PY        -0.00774   0.39997   0.02199  -0.28115  -0.36151
  29        3PZ        -0.20891   0.15244  -0.41543   0.17958  -0.12336
  30 5   H  1S          0.00156   0.00000   0.28685  -0.02029   0.40096
  31        2S         -0.00036   0.00000   0.08754  -0.00641   0.12668
  32        3PX         0.46437  -0.36156  -0.19097  -0.32630   0.23975
  33        3PY         0.00720  -0.32725  -0.00533  -0.26506  -0.37842
  34        3PZ         0.11700   0.17082  -0.41473   0.15584  -0.14874
                          26        27        28        29        30
                           V         V         V         V         V
     Eigenvalues --     1.80535   1.80642   1.80642   2.18329   2.20000
   1 1   C  1S         -0.00000  -0.00000  -0.00000   0.00000   0.01559
   2        2S         -0.00000   0.00000   0.00000  -0.00002  -0.10414
   3        3S          0.00001  -0.00001  -0.00000  -0.00001  -0.07902
   4        4PX         0.24011   0.43349  -0.24474   0.00000  -0.00001
   5        4PY        -0.01207   0.27762   0.47956  -0.00000   0.00000
   6        4PZ         0.49043  -0.20545   0.13163  -0.00000  -0.00000
   7        5PX         0.36341   0.64850  -0.36612   0.00000  -0.00001
   8        5PY        -0.01826   0.41531   0.71740   0.00000   0.00000
   9        5PZ         0.74222  -0.30731   0.19691  -0.00000  -0.00000
  10        6D 0       -0.00895   0.18911   0.23325   0.19035   0.79850
  11        6D+1        0.02978  -0.18162  -0.19432  -0.44201   0.77648
  12        6D-1        0.19563  -0.29533   0.25620   0.07788  -0.03724
  13        6D+2       -0.08299  -0.12330  -0.12234   0.99631   0.19095
  14        6D-2       -0.39008  -0.14013   0.13434  -0.21101  -0.01836
  15 2   H  1S          0.11160   0.02676  -0.16308   0.00001   0.03449
  16        2S          0.41419   0.09571  -0.58302   0.00001   0.02052
  17        3PX         0.19678  -0.36978  -0.38945   0.32724   0.05114
  18        3PY        -0.40834  -0.40391   0.06691   0.29586   0.16835
  19        3PZ        -0.37050   0.26852  -0.40110  -0.15433   0.43116
  20 3   H  1S         -0.11133  -0.16333  -0.02638   0.00000   0.03450
  21        2S         -0.41323  -0.58393  -0.09429   0.00000   0.02053
  22        3PX         0.27014   0.28785   0.39353  -0.26204  -0.01925
  23        3PY         0.34338   0.16135  -0.45330   0.36167   0.15334
  24        3PZ        -0.38988   0.45600  -0.10808   0.13773  -0.43929
  25 4   H  1S         -0.11221   0.16270   0.02651   0.00001   0.03449
  26        2S         -0.41639   0.58160   0.09479   0.00000   0.02053
  27        3PX        -0.47868  -0.18591   0.31747   0.26203  -0.33945
  28        3PY        -0.33488   0.18206  -0.44922  -0.36167  -0.13615
  29        3PZ        -0.03350  -0.49963  -0.26348  -0.13776  -0.28826
  30 5   H  1S          0.11194  -0.02613   0.16295   0.00000   0.03449
  31        2S          0.41542  -0.09337   0.58252  -0.00000   0.02053
  32        3PX        -0.40336  -0.44799   0.08256  -0.32723   0.30756
  33        3PY         0.42067  -0.39790   0.04379  -0.29587  -0.18555
  34        3PZ        -0.05376   0.11422   0.55534   0.15435   0.29638
                          31        32        33        34
                           V         V         V         V
     Eigenvalues --     2.28616   2.56819   2.56819   2.56959
   1 1   C  1S         -0.30931  -0.00000   0.00000   0.00000
   2        2S          1.97206   0.00002  -0.00002  -0.00003
   3        3S          1.09965   0.00001  -0.00000  -0.00001
   4        4PX        -0.00001   0.97392  -0.30421   0.50583
   5        4PY        -0.00001   0.34948   1.08101  -0.02331
   6        4PZ         0.00001  -0.46967   0.17358   1.03145
   7        5PX        -0.00000   0.52630  -0.16439   0.26926
   8        5PY        -0.00000   0.18886   0.58418  -0.01240
   9        5PZ         0.00001  -0.25383   0.09381   0.54911
  10        6D 0        0.04718  -0.42806  -0.84440   0.02581
  11        6D+1        0.04588   0.43092   0.71954  -0.09010
  12        6D-1       -0.00222   1.08094  -0.59265  -0.60209
  13        6D+2        0.01130   0.29851   0.45850   0.25654
  14        6D-2       -0.00108   0.51960  -0.32287   1.20109
  15 2   H  1S         -0.59167   0.35712  -0.91081   0.68996
  16        2S         -0.29697   0.14272  -0.36399   0.27547
  17        3PX        -0.57317   0.31270  -0.66987   0.52458
  18        3PY         0.52996  -0.21044   0.65221  -0.44978
  19        3PZ        -0.19934   0.07192  -0.24340   0.25020
  20 3   H  1S         -0.59167  -0.91097  -0.35485  -0.69092
  21        2S         -0.29696  -0.36406  -0.14181  -0.27585
  22        3PX         0.66701   0.81337   0.27679   0.60469
  23        3PY         0.41644   0.48195   0.24306   0.35059
  24        3PZ         0.17545   0.19959   0.09863   0.23025
  25 4   H  1S         -0.59168   0.90854   0.35698  -0.69301
  26        2S         -0.29697   0.36309   0.14266  -0.27669
  27        3PX        -0.27497   0.34551   0.09554  -0.19323
  28        3PY        -0.43525   0.50305   0.25293  -0.37135
  29        3PZ         0.61975  -0.74583  -0.27208   0.60792
  30 5   H  1S         -0.59166  -0.35471   0.90871   0.69401
  31        2S         -0.29696  -0.14176   0.36315   0.27708
  32        3PX         0.18112   0.12911  -0.20245  -0.11377
  33        3PY        -0.51115  -0.20016   0.62850   0.43267
  34        3PZ        -0.59584  -0.29763   0.70217   0.58840
     Alpha Density Matrix:
                           1         2         3         4         5
   1 1   C  1S          1.04371
   2        2S         -0.08510   0.27988
   3        3S         -0.06738   0.04991   0.01158
   4        4PX        -0.00000   0.00000   0.00000   0.23598
   5        4PY        -0.00000   0.00000   0.00000  -0.00021   0.23153
   6        4PZ         0.00000  -0.00000   0.00000   0.00905  -0.00043
   7        5PX        -0.00000   0.00000   0.00000   0.08522  -0.00012
   8        5PY        -0.00000   0.00000   0.00000  -0.00012   0.08274
   9        5PZ         0.00000  -0.00000   0.00000   0.00504  -0.00024
  10        6D 0       -0.00195   0.00449   0.00083  -0.00099  -0.00716
  11        6D+1       -0.00190   0.00437   0.00081   0.00105   0.00627
  12        6D-1        0.00009  -0.00021  -0.00004   0.00628  -0.00168
  13        6D+2       -0.00047   0.00107   0.00020   0.00188   0.00400
  14        6D-2        0.00004  -0.00010  -0.00002   0.00812  -0.00131
  15 2   H  1S         -0.05275   0.09874   0.01877  -0.14329   0.12998
  16        2S          0.00282   0.01070   0.00160  -0.02235   0.02250
  17        3PX        -0.00686   0.00979   0.00195  -0.00138   0.00770
  18        3PY         0.00663  -0.00966  -0.00191   0.00892  -0.00085
  19        3PZ        -0.00183   0.00225   0.00046  -0.00107   0.00092
  20 3   H  1S         -0.05275   0.09874   0.01877   0.16628   0.10189
  21        2S          0.00282   0.01070   0.00160   0.02635   0.01786
  22        3PX         0.00803  -0.01151  -0.00229  -0.00458  -0.00715
  23        3PY         0.00524  -0.00765  -0.00151  -0.00824   0.00217
  24        3PZ         0.00153  -0.00181  -0.00037  -0.00077  -0.00043
  25 4   H  1S         -0.05275   0.09874   0.01877  -0.06451  -0.10677
  26        2S          0.00282   0.01070   0.00160  -0.01382  -0.01846
  27        3PX        -0.00377   0.00572   0.00112   0.00459  -0.00431
  28        3PY        -0.00544   0.00793   0.00157  -0.00322   0.00177
  29        3PZ         0.00710  -0.00994  -0.00198   0.00352   0.00602
  30 5   H  1S         -0.05275   0.09874   0.01877   0.04152  -0.12510
  31        2S          0.00282   0.01070   0.00160   0.00981  -0.02190
  32        3PX         0.00260  -0.00400  -0.00078   0.00597   0.00367
  33        3PY        -0.00642   0.00938   0.00186   0.00245  -0.00036
  34        3PZ        -0.00680   0.00950   0.00189   0.00211  -0.00670
                           6         7         8         9        10
   6        4PZ         0.24988
   7        5PX         0.00504   0.03079
   8        5PY        -0.00024  -0.00006   0.02957
   9        5PZ         0.09295   0.00248  -0.00012   0.03459
  10        6D 0        0.00054  -0.00035  -0.00256   0.00020   0.00030
  11        6D+1       -0.00114   0.00037   0.00224  -0.00042  -0.00013
  12        6D-1       -0.00825   0.00221  -0.00060  -0.00302   0.00000
  13        6D+2        0.00135   0.00069   0.00143   0.00052  -0.00011
  14        6D-2        0.00623   0.00297  -0.00047   0.00237   0.00002
  15 2   H  1S         -0.05464  -0.05211   0.04649  -0.02137  -0.00193
  16        2S         -0.00426  -0.00810   0.00804  -0.00175  -0.00044
  17        3PX        -0.00341  -0.00052   0.00275  -0.00128  -0.00008
  18        3PY         0.00350   0.00324  -0.00031   0.00136  -0.00016
  19        3PZ         0.00667  -0.00034   0.00033   0.00247   0.00003
  20 3   H  1S          0.04878   0.06033   0.03637   0.01928  -0.00216
  21        2S          0.00324   0.00953   0.00638   0.00139  -0.00049
  22        3PX        -0.00362  -0.00168  -0.00255  -0.00138   0.00005
  23        3PY        -0.00250  -0.00299   0.00078  -0.00099  -0.00016
  24        3PZ         0.00685  -0.00023  -0.00015   0.00254   0.00000
  25 4   H  1S          0.15763  -0.02214  -0.03820   0.05818   0.00554
  26        2S          0.02218  -0.00482  -0.00660   0.00815   0.00085
  27        3PX         0.00638   0.00170  -0.00154   0.00240   0.00022
  28        3PY         0.00809  -0.00111   0.00063   0.00298   0.00011
  29        3PZ        -0.00193   0.00126   0.00215  -0.00069  -0.00037
  30 5   H  1S         -0.15178   0.01392  -0.04466  -0.05609   0.00494
  31        2S         -0.02116   0.00339  -0.00782  -0.00779   0.00076
  32        3PX         0.00445   0.00218   0.00131   0.00169  -0.00019
  33        3PY        -0.00928   0.00082  -0.00013  -0.00343   0.00013
  34        3PZ        -0.00117   0.00076  -0.00239  -0.00042   0.00035
                          11        12        13        14        15
  11        6D+1        0.00025
  12        6D-1        0.00002   0.00047
  13        6D+2        0.00013  -0.00002   0.00010
  14        6D-2       -0.00003   0.00002   0.00007   0.00043
  15 2   H  1S          0.00466  -0.00316   0.00123  -0.00686   0.20475
  16        2S          0.00069  -0.00065   0.00023  -0.00098   0.03047
  17        3PX         0.00037   0.00001   0.00014  -0.00017   0.00935
  18        3PY        -0.00015   0.00014   0.00004   0.00039  -0.01000
  19        3PZ         0.00002  -0.00027   0.00005   0.00012   0.00067
  20 3   H  1S          0.00486   0.00216   0.00369   0.00612  -0.01674
  21        2S          0.00075   0.00049   0.00057   0.00086  -0.00277
  22        3PX        -0.00038   0.00006  -0.00022  -0.00019  -0.00471
  23        3PY        -0.00009  -0.00015  -0.00007  -0.00034   0.00388
  24        3PZ        -0.00008  -0.00025   0.00001   0.00014  -0.00178
  25 4   H  1S         -0.00238  -0.00646  -0.00115   0.00214  -0.01674
  26        2S         -0.00050  -0.00101  -0.00027   0.00016  -0.00277
  27        3PX        -0.00003  -0.00006   0.00002   0.00033  -0.00435
  28        3PY         0.00012  -0.00038   0.00008   0.00007   0.00420
  29        3PZ         0.00003   0.00013   0.00008   0.00004  -0.00195
  30 5   H  1S         -0.00093   0.00716  -0.00224  -0.00154  -0.02990
  31        2S         -0.00028   0.00115  -0.00037  -0.00005  -0.01036
  32        3PX         0.00004  -0.00001   0.00012   0.00029  -0.00384
  33        3PY         0.00019   0.00038   0.00000  -0.00014   0.00354
  34        3PZ        -0.00002   0.00014  -0.00007   0.00008  -0.00135
                          16        17        18        19        20
  16        2S          0.00479
  17        3PX         0.00127   0.00067
  18        3PY        -0.00132  -0.00047   0.00073
  19        3PZ         0.00018   0.00003  -0.00004   0.00021
  20 3   H  1S         -0.00277   0.00539   0.00296   0.00161   0.20475
  21        2S         -0.00034   0.00076   0.00061   0.00009   0.03047
  22        3PX        -0.00063  -0.00058   0.00022  -0.00020  -0.01114
  23        3PY         0.00074  -0.00013  -0.00007  -0.00008  -0.00799
  24        3PZ        -0.00013  -0.00017   0.00013   0.00017  -0.00021
  25 4   H  1S         -0.00277  -0.00177  -0.00352   0.00499  -0.02990
  26        2S         -0.00034  -0.00049  -0.00052   0.00068  -0.01036
  27        3PX        -0.00073  -0.00004   0.00006   0.00018   0.00446
  28        3PY         0.00065   0.00026  -0.00031   0.00031   0.00278
  29        3PZ        -0.00008  -0.00016   0.00044  -0.00013   0.00119
  30 5   H  1S         -0.01036   0.00120  -0.00341  -0.00400  -0.01674
  31        2S         -0.00232  -0.00014  -0.00017  -0.00063  -0.00277
  32        3PX        -0.00041  -0.00011   0.00041   0.00007   0.00510
  33        3PY         0.00020   0.00044  -0.00036  -0.00019   0.00336
  34        3PZ        -0.00049   0.00013  -0.00025   0.00001   0.00176
                          21        22        23        24        25
  21        2S          0.00479
  22        3PX        -0.00151   0.00085
  23        3PY        -0.00105   0.00045   0.00054
  24        3PZ        -0.00012   0.00001   0.00001   0.00021
  25 4   H  1S         -0.01036  -0.00182  -0.00290   0.00416   0.20475
  26        2S         -0.00232   0.00011  -0.00016   0.00064   0.03047
  27        3PX         0.00044  -0.00029  -0.00042   0.00012   0.00676
  28        3PY         0.00014  -0.00045  -0.00017   0.00018   0.00820
  29        3PZ         0.00048   0.00020   0.00023  -0.00001  -0.00866
  30 5   H  1S         -0.00277   0.00102  -0.00404  -0.00480  -0.01674
  31        2S         -0.00034   0.00037  -0.00063  -0.00065  -0.00277
  32        3PX         0.00084  -0.00012  -0.00010   0.00012  -0.00206
  33        3PY         0.00050  -0.00031  -0.00027  -0.00033  -0.00312
  34        3PZ         0.00005  -0.00022  -0.00040  -0.00009   0.00514
                          26        27        28        29        30
  26        2S          0.00479
  27        3PX         0.00084   0.00044
  28        3PY         0.00108   0.00028   0.00056
  29        3PZ        -0.00123  -0.00031  -0.00036   0.00060
  30 5   H  1S         -0.00277   0.00138  -0.00372  -0.00497   0.20475
  31        2S         -0.00034   0.00027  -0.00073  -0.00060   0.03047
  32        3PX        -0.00040   0.00007  -0.00003   0.00030  -0.00498
  33        3PY        -0.00063   0.00002  -0.00007  -0.00024   0.00979
  34        3PZ         0.00064   0.00034   0.00016  -0.00049   0.00820
                          31        32        33        34
  31        2S          0.00479
  32        3PX        -0.00061   0.00034
  33        3PY         0.00128  -0.00024   0.00071
  34        3PZ         0.00117  -0.00022   0.00041   0.00056
     Beta Density Matrix:
                           1         2         3         4         5
   1 1   C  1S          1.04377
   2        2S         -0.08398   0.27164
   3        3S         -0.07314   0.06356   0.01768
   4        4PX         0.00000  -0.00000   0.00000   0.19691
   5        4PY        -0.00000   0.00000   0.00000   0.00229   0.24463
   6        4PZ        -0.00000   0.00000  -0.00000  -0.09702   0.00465
   7        5PX        -0.00000  -0.00000   0.00000   0.07867   0.00092
   8        5PY        -0.00000   0.00000   0.00000   0.00092   0.09773
   9        5PZ        -0.00000   0.00000  -0.00000  -0.03876   0.00186
  10        6D 0        0.00134  -0.00331  -0.00079  -0.00094  -0.00625
  11        6D+1        0.00130  -0.00322  -0.00077   0.00118   0.00547
  12        6D-1       -0.00006   0.00015   0.00004   0.00726  -0.00155
  13        6D+2        0.00032  -0.00079  -0.00019   0.00089   0.00353
  14        6D-2       -0.00003   0.00008   0.00002   0.00354  -0.00098
  15 2   H  1S         -0.05032   0.09312   0.02292  -0.08793   0.12135
  16        2S          0.00269   0.01036   0.00211  -0.01576   0.02176
  17        3PX        -0.00649   0.00914   0.00233   0.00053   0.00716
  18        3PY         0.00575  -0.00806  -0.00206   0.00471   0.00062
  19        3PZ        -0.00274   0.00391   0.00100  -0.00478   0.00287
  20 3   H  1S         -0.05032   0.09312   0.02292   0.10980   0.09928
  21        2S          0.00269   0.01036   0.00211   0.01968   0.01780
  22        3PX         0.00751  -0.01056  -0.00269  -0.00178  -0.00666
  23        3PY         0.00449  -0.00630  -0.00161  -0.00448   0.00292
  24        3PZ         0.00249  -0.00355  -0.00090  -0.00501  -0.00187
  25 4   H  1S         -0.05032   0.09312   0.02292  -0.10980  -0.09927
  26        2S          0.00269   0.01036   0.00211  -0.01968  -0.01780
  27        3PX        -0.00269   0.00373   0.00095   0.00280  -0.00252
  28        3PY        -0.00472   0.00663   0.00169  -0.00470   0.00273
  29        3PZ         0.00729  -0.01029  -0.00262   0.00429   0.00653
  30 5   H  1S         -0.05032   0.09312   0.02292   0.08792  -0.12136
  31        2S          0.00269   0.01036   0.00211   0.01576  -0.02176
  32        3PX         0.00167  -0.00231  -0.00059   0.00420   0.00209
  33        3PY        -0.00552   0.00774   0.00197   0.00454   0.00087
  34        3PZ        -0.00703   0.00993   0.00253   0.00267  -0.00740
                           6         7         8         9        10
   6        4PZ         0.04794
   7        5PX        -0.03876   0.03143
   8        5PY         0.00186   0.00037   0.03905
   9        5PZ         0.01915  -0.01549   0.00074   0.00765
  10        6D 0        0.00032  -0.00038  -0.00250   0.00013   0.00020
  11        6D+1       -0.00045   0.00047   0.00218  -0.00018  -0.00011
  12        6D-1       -0.00362   0.00290  -0.00062  -0.00144   0.00001
  13        6D+2       -0.00035   0.00035   0.00141  -0.00014  -0.00008
  14        6D-2       -0.00177   0.00141  -0.00039  -0.00071   0.00001
  15 2   H  1S          0.04622  -0.03513   0.04848   0.01846  -0.00384
  16        2S          0.00829  -0.00630   0.00869   0.00331  -0.00061
  17        3PX        -0.00009   0.00021   0.00286  -0.00004  -0.00030
  18        3PY        -0.00231   0.00188   0.00025  -0.00092   0.00006
  19        3PZ         0.00242  -0.00191   0.00115   0.00097  -0.00010
  20 3   H  1S         -0.05179   0.04387   0.03966  -0.02069  -0.00417
  21        2S         -0.00928   0.00786   0.00711  -0.00371  -0.00067
  22        3PX         0.00072  -0.00071  -0.00266   0.00029   0.00031
  23        3PY         0.00228  -0.00179   0.00117   0.00091   0.00002
  24        3PZ         0.00243  -0.00200  -0.00075   0.00097   0.00011
  25 4   H  1S          0.05178  -0.04387  -0.03966   0.02069   0.00189
  26        2S          0.00928  -0.00786  -0.00711   0.00371   0.00042
  27        3PX        -0.00144   0.00112  -0.00101  -0.00058   0.00001
  28        3PY         0.00238  -0.00188   0.00109   0.00095  -0.00013
  29        3PZ        -0.00196   0.00171   0.00261  -0.00078  -0.00006
  30 5   H  1S         -0.04622   0.03513  -0.04848  -0.01846   0.00156
  31        2S         -0.00829   0.00630  -0.00869  -0.00331   0.00036
  32        3PX        -0.00202   0.00168   0.00084  -0.00081  -0.00004
  33        3PY        -0.00222   0.00181   0.00035  -0.00089  -0.00014
  34        3PZ        -0.00149   0.00107  -0.00296  -0.00060   0.00005
                          11        12        13        14        15
  11        6D+1        0.00017
  12        6D-1        0.00001   0.00028
  13        6D+2        0.00009   0.00001   0.00006
  14        6D-2       -0.00000   0.00014   0.00000   0.00007
  15 2   H  1S          0.00109  -0.00401   0.00109  -0.00206   0.13287
  16        2S          0.00027  -0.00072   0.00022  -0.00037   0.02144
  17        3PX         0.00005  -0.00002   0.00008  -0.00002   0.00655
  18        3PY         0.00014   0.00017   0.00005   0.00008  -0.00465
  19        3PZ        -0.00001  -0.00019   0.00001  -0.00010   0.00497
  20 3   H  1S          0.00173   0.00345   0.00163   0.00159   0.03238
  21        2S          0.00039   0.00061   0.00031   0.00028   0.00343
  22        3PX        -0.00003  -0.00003  -0.00007  -0.00001  -0.00624
  23        3PY         0.00011  -0.00019   0.00004  -0.00009   0.00128
  24        3PZ        -0.00003  -0.00017  -0.00004  -0.00008   0.00008
  25 4   H  1S         -0.00395  -0.00334  -0.00218  -0.00154   0.03238
  26        2S         -0.00063  -0.00060  -0.00037  -0.00028   0.00343
  27        3PX        -0.00008   0.00012  -0.00004   0.00006  -0.00122
  28        3PY        -0.00005  -0.00019  -0.00000  -0.00009   0.00582
  29        3PZ         0.00029   0.00011   0.00014   0.00005  -0.00229
  30 5   H  1S         -0.00331   0.00411  -0.00164   0.00212  -0.06811
  31        2S         -0.00052   0.00073  -0.00027   0.00038  -0.01459
  32        3PX         0.00010   0.00014   0.00006   0.00007  -0.00166
  33        3PY        -0.00005   0.00017   0.00001   0.00008   0.00110
  34        3PZ        -0.00027   0.00015  -0.00012   0.00008  -0.00142
                          16        17        18        19        20
  16        2S          0.00366
  17        3PX         0.00093   0.00053
  18        3PY        -0.00062  -0.00025   0.00036
  19        3PZ         0.00079   0.00021  -0.00023   0.00021
  20 3   H  1S          0.00343   0.00637   0.00002  -0.00012   0.13287
  21        2S          0.00043   0.00089   0.00022  -0.00013   0.02144
  22        3PX        -0.00083  -0.00057   0.00027  -0.00019  -0.00736
  23        3PY         0.00040  -0.00015   0.00009   0.00005  -0.00352
  24        3PZ         0.00011  -0.00019  -0.00001   0.00005  -0.00477
  25 4   H  1S          0.00343   0.00005  -0.00569   0.00286  -0.06811
  26        2S          0.00043  -0.00024  -0.00080   0.00041  -0.01459
  27        3PX        -0.00032   0.00006  -0.00005  -0.00004   0.00185
  28        3PY         0.00086   0.00030  -0.00031   0.00025   0.00082
  29        3PZ        -0.00013  -0.00016   0.00044  -0.00018   0.00137
  30 5   H  1S         -0.01459  -0.00013  -0.00101  -0.00222   0.03238
  31        2S         -0.00280  -0.00027   0.00004  -0.00050   0.00343
  32        3PX        -0.00024  -0.00001   0.00018  -0.00011   0.00235
  33        3PY        -0.00001   0.00031  -0.00013   0.00002   0.00557
  34        3PZ        -0.00052   0.00014  -0.00026  -0.00000   0.00200
                          21        22        23        24        25
  21        2S          0.00366
  22        3PX        -0.00103   0.00062
  23        3PY        -0.00046   0.00022   0.00029
  24        3PZ        -0.00076   0.00024   0.00018   0.00019
  25 4   H  1S         -0.01459  -0.00006  -0.00091   0.00227   0.13286
  26        2S         -0.00280   0.00028   0.00001   0.00050   0.02144
  27        3PX         0.00023  -0.00011  -0.00019  -0.00010   0.00077
  28        3PY        -0.00003  -0.00030  -0.00002   0.00001   0.00384
  29        3PZ         0.00053   0.00020   0.00023  -0.00002  -0.00860
  30 5   H  1S          0.00343  -0.00118  -0.00570  -0.00258   0.03238
  31        2S          0.00043   0.00008  -0.00085  -0.00037   0.00343
  32        3PX         0.00048   0.00000  -0.00001  -0.00009  -0.00397
  33        3PY         0.00079  -0.00038  -0.00028  -0.00023  -0.00014
  34        3PZ         0.00009  -0.00022  -0.00039  -0.00015   0.00498
                          26        27        28        29        30
  26        2S          0.00366
  27        3PX         0.00004   0.00012
  28        3PY         0.00051  -0.00000   0.00031
  29        3PZ        -0.00126  -0.00015  -0.00029   0.00067
  30 5   H  1S          0.00343   0.00384  -0.00116  -0.00495   0.13287
  31        2S          0.00043   0.00059  -0.00039  -0.00061   0.02144
  32        3PX        -0.00065   0.00001  -0.00014   0.00024   0.00004
  33        3PY        -0.00023   0.00017   0.00010  -0.00019   0.00434
  34        3PZ         0.00062   0.00026   0.00010  -0.00053   0.00840
                          31        32        33        34
  31        2S          0.00366
  32        3PX         0.00007   0.00013
  33        3PY         0.00057   0.00003   0.00034
  34        3PZ         0.00124  -0.00009   0.00033   0.00064
    Full Mulliken population analysis:
                           1         2         3         4         5
   1 1   C  1S          2.08748
   2        2S         -0.05505   0.55152
   3        3S         -0.02133   0.09060   0.02926
   4        4PX         0.00000   0.00000   0.00000   0.43289
   5        4PY         0.00000   0.00000   0.00000   0.00000   0.47616
   6        4PZ         0.00000   0.00000   0.00000  -0.00000  -0.00000
   7        5PX         0.00000   0.00000   0.00000   0.08717   0.00000
   8        5PY         0.00000   0.00000   0.00000   0.00000   0.09599
   9        5PZ         0.00000   0.00000   0.00000  -0.00000  -0.00000
  10        6D 0       -0.00000   0.00000   0.00000   0.00000   0.00000
  11        6D+1       -0.00000   0.00000   0.00000   0.00000   0.00000
  12        6D-1       -0.00000   0.00000   0.00000   0.00000   0.00000
  13        6D+2       -0.00000   0.00000   0.00000   0.00000   0.00000
  14        6D-2        0.00000  -0.00000  -0.00000   0.00000   0.00000
  15 2   H  1S         -0.00535   0.07194   0.01911   0.06550   0.06431
  16        2S          0.00048   0.01106   0.00285   0.00566   0.00594
  17        3PX        -0.00082   0.00495   0.00057   0.00009   0.00421
  18        3PY        -0.00069   0.00418   0.00048   0.00386   0.00001
  19        3PZ        -0.00011   0.00063   0.00008   0.00071   0.00042
  20 3   H  1S         -0.00535   0.07194   0.01911   0.09070   0.04033
  21        2S          0.00048   0.01106   0.00285   0.00793   0.00375
  22        3PX        -0.00111   0.00669   0.00077   0.00135   0.00356
  23        3PY        -0.00042   0.00258   0.00029   0.00328   0.00027
  24        3PZ        -0.00009   0.00049   0.00006   0.00073   0.00018
  25 4   H  1S         -0.00535   0.07194   0.01911   0.02191   0.04331
  26        2S          0.00048   0.01106   0.00285   0.00221   0.00399
  27        3PX        -0.00018   0.00110   0.00012   0.00109   0.00071
  28        3PY        -0.00046   0.00282   0.00032   0.00082   0.00016
  29        3PZ        -0.00098   0.00584   0.00068   0.00120   0.00323
  30 5   H  1S         -0.00535   0.07194   0.01911   0.01041   0.06067
  31        2S          0.00048   0.01106   0.00285   0.00108   0.00563
  32        3PX        -0.00007   0.00047   0.00005   0.00187   0.00045
  33        3PY        -0.00064   0.00389   0.00044   0.00054  -0.00001
  34        3PZ        -0.00091   0.00540   0.00063   0.00045   0.00409
                           6         7         8         9        10
   6        4PZ         0.29782
   7        5PX        -0.00000   0.06221
   8        5PY        -0.00000   0.00000   0.06861
   9        5PZ         0.05963  -0.00000  -0.00000   0.04224
  10        6D 0        0.00000   0.00000   0.00000   0.00000   0.00050
  11        6D+1        0.00000   0.00000   0.00000   0.00000  -0.00000
  12        6D-1        0.00000   0.00000   0.00000   0.00000  -0.00000
  13        6D+2        0.00000   0.00000   0.00000   0.00000   0.00000
  14        6D-2        0.00000   0.00000   0.00000   0.00000  -0.00000
  15 2   H  1S          0.00093   0.03514   0.03456   0.00046   0.00068
  16        2S         -0.00023   0.00543   0.00571  -0.00023   0.00002
  17        3PX         0.00043  -0.00004   0.00075   0.00008   0.00002
  18        3PY         0.00013   0.00068  -0.00001   0.00002  -0.00000
  19        3PZ         0.00147   0.00013   0.00008   0.00085   0.00001
  20 3   H  1S         -0.00030   0.04867   0.02167  -0.00020   0.00079
  21        2S         -0.00031   0.00761   0.00360  -0.00031   0.00002
  22        3PX         0.00037  -0.00017   0.00063   0.00006   0.00002
  23        3PY         0.00002   0.00058   0.00038   0.00000  -0.00001
  24        3PZ         0.00159   0.00013   0.00003   0.00088   0.00002
  25 4   H  1S          0.06551   0.01180   0.02327   0.03508   0.00097
  26        2S          0.00516   0.00213   0.00384   0.00495   0.00003
  27        3PX         0.00076   0.00068   0.00012   0.00013   0.00003
  28        3PY         0.00269   0.00014   0.00032   0.00047  -0.00001
  29        3PZ         0.00067   0.00021   0.00057  -0.00013  -0.00004
  30 5   H  1S          0.05965   0.00561   0.03260   0.03194   0.00072
  31        2S          0.00465   0.00104   0.00542   0.00446   0.00002
  32        3PX         0.00023   0.00100   0.00008   0.00004   0.00002
  33        3PY         0.00333   0.00010   0.00003   0.00059  -0.00000
  34        3PZ         0.00039   0.00008   0.00073  -0.00010  -0.00005
                          11        12        13        14        15
  11        6D+1        0.00042
  12        6D-1        0.00000   0.00075
  13        6D+2        0.00000  -0.00000   0.00015
  14        6D-2        0.00000   0.00000   0.00000   0.00049
  15 2   H  1S          0.00060   0.00067   0.00006   0.00216   0.33762
  16        2S          0.00002   0.00002   0.00000   0.00005   0.03555
  17        3PX         0.00003   0.00000  -0.00005   0.00003   0.00000
  18        3PY         0.00000   0.00001  -0.00002   0.00004   0.00000
  19        3PZ        -0.00000  -0.00008   0.00000  -0.00000   0.00000
  20 3   H  1S          0.00071   0.00037   0.00060   0.00170   0.00094
  21        2S          0.00002   0.00001   0.00002   0.00004   0.00015
  22        3PX         0.00005  -0.00000  -0.00002   0.00005   0.00071
  23        3PY        -0.00000  -0.00000   0.00001  -0.00002   0.00003
  24        3PZ        -0.00002  -0.00006   0.00000  -0.00001   0.00004
  25 4   H  1S          0.00083   0.00215   0.00016   0.00005   0.00094
  26        2S          0.00002   0.00006   0.00000  -0.00000   0.00015
  27        3PX        -0.00002  -0.00001   0.00000  -0.00005   0.00009
  28        3PY        -0.00001  -0.00001   0.00001   0.00000   0.00050
  29        3PZ         0.00004   0.00005   0.00002  -0.00001   0.00019
  30 5   H  1S          0.00034   0.00279   0.00035  -0.00004  -0.00590
  31        2S          0.00001   0.00007   0.00001  -0.00000  -0.00575
  32        3PX        -0.00003  -0.00001   0.00002  -0.00006   0.00021
  33        3PY        -0.00002   0.00004   0.00000   0.00000   0.00025
  34        3PZ         0.00002   0.00006   0.00003  -0.00002  -0.00006
                          16        17        18        19        20
  16        2S          0.00845
  17        3PX         0.00000   0.00120
  18        3PY         0.00000  -0.00000   0.00109
  19        3PZ         0.00000   0.00000   0.00000   0.00042
  20 3   H  1S          0.00015   0.00076  -0.00002   0.00003   0.33762
  21        2S          0.00004   0.00021  -0.00001  -0.00000   0.03555
  22        3PX         0.00019   0.00009   0.00000   0.00001   0.00000
  23        3PY         0.00001  -0.00000   0.00000  -0.00000   0.00000
  24        3PZ         0.00000   0.00001   0.00000   0.00000   0.00000
  25 4   H  1S          0.00015  -0.00003   0.00046   0.00035  -0.00590
  26        2S          0.00004  -0.00002   0.00013   0.00010  -0.00575
  27        3PX         0.00003   0.00000   0.00000  -0.00000   0.00030
  28        3PY         0.00015   0.00001   0.00003   0.00003   0.00016
  29        3PZ         0.00002   0.00001   0.00004   0.00001  -0.00006
  30 5   H  1S         -0.00575   0.00004   0.00024   0.00013   0.00094
  31        2S         -0.00259  -0.00003   0.00001   0.00005   0.00015
  32        3PX         0.00005   0.00000   0.00003  -0.00000   0.00020
  33        3PY         0.00002   0.00003   0.00002   0.00000   0.00042
  34        3PZ        -0.00004   0.00000   0.00001   0.00000   0.00016
                          21        22        23        24        25
  21        2S          0.00845
  22        3PX         0.00000   0.00148
  23        3PY         0.00000   0.00000   0.00083
  24        3PZ         0.00000   0.00000  -0.00000   0.00039
  25 4   H  1S         -0.00575   0.00009   0.00017   0.00015   0.33762
  26        2S         -0.00259  -0.00004   0.00001   0.00005   0.03555
  27        3PX         0.00006   0.00002   0.00003   0.00000   0.00000
  28        3PY         0.00001   0.00003   0.00001   0.00000   0.00000
  29        3PZ        -0.00005   0.00001   0.00001  -0.00000   0.00000
  30 5   H  1S          0.00015   0.00000   0.00046   0.00031   0.00094
  31        2S          0.00004  -0.00002   0.00014   0.00008   0.00015
  32        3PX         0.00007   0.00000   0.00000  -0.00000   0.00013
  33        3PY         0.00012   0.00002   0.00002   0.00002  -0.00001
  34        3PZ         0.00001   0.00001   0.00003   0.00001   0.00066
                          26        27        28        29        30
  26        2S          0.00845
  27        3PX         0.00000   0.00056
  28        3PY         0.00000   0.00000   0.00087
  29        3PZ         0.00000  -0.00000   0.00000   0.00127
  30 5   H  1S          0.00015   0.00011   0.00002   0.00065   0.33762
  31        2S          0.00004   0.00004   0.00001   0.00015   0.03555
  32        3PX         0.00005   0.00000  -0.00000   0.00002   0.00000
  33        3PY        -0.00001   0.00000   0.00000   0.00000   0.00000
  34        3PZ         0.00016   0.00002  -0.00000   0.00008   0.00000
                          31        32        33        34
  31        2S          0.00845
  32        3PX         0.00000   0.00047
  33        3PY         0.00000  -0.00000   0.00104
  34        3PZ         0.00000  -0.00000  -0.00000   0.00120
     Gross orbital populations:
                         Total     Alpha     Beta      Spin
   1 1   C  1S          1.98518   0.99249   0.99269  -0.00020
   2        2S          0.95807   0.48285   0.47522   0.00763
   3        3S          0.19084   0.08256   0.10827  -0.02571
   4        4PX         0.74146   0.40619   0.33527   0.07092
   5        4PY         0.81735   0.40082   0.41653  -0.01571
   6        4PZ         0.50459   0.42296   0.08163   0.34133
   7        5PX         0.27034   0.14106   0.12928   0.01177
   8        5PY         0.29899   0.13837   0.16062  -0.02224
   9        5PZ         0.18091   0.14943   0.03148   0.11795
  10        6D 0        0.00377   0.00214   0.00162   0.00052
  11        6D+1        0.00299   0.00171   0.00128   0.00043
  12        6D-1        0.00688   0.00420   0.00268   0.00152
  13        6D+2        0.00135   0.00082   0.00053   0.00029
  14        6D-2        0.00440   0.00375   0.00065   0.00310
  15 2   H  1S          0.65642   0.38588   0.27053   0.11535
  16        2S          0.07325   0.04049   0.03276   0.00772
  17        3PX         0.01252   0.00672   0.00580   0.00092
  18        3PY         0.01073   0.00680   0.00393   0.00287
  19        3PZ         0.00530   0.00277   0.00254   0.00023
  20 3   H  1S          0.65642   0.38588   0.27053   0.11535
  21        2S          0.07325   0.04049   0.03276   0.00772
  22        3PX         0.01483   0.00825   0.00659   0.00166
  23        3PY         0.00870   0.00534   0.00336   0.00197
  24        3PZ         0.00502   0.00270   0.00231   0.00039
  25 4   H  1S          0.65641   0.38589   0.27053   0.11536
  26        2S          0.07325   0.04049   0.03276   0.00772
  27        3PX         0.00577   0.00427   0.00150   0.00277
  28        3PY         0.00910   0.00551   0.00359   0.00193
  29        3PZ         0.01369   0.00651   0.00718  -0.00067
  30 5   H  1S          0.65642   0.38589   0.27053   0.11536
  31        2S          0.07325   0.04049   0.03276   0.00772
  32        3PX         0.00525   0.00353   0.00172   0.00181
  33        3PY         0.01025   0.00659   0.00366   0.00293
  34        3PZ         0.01305   0.00616   0.00688  -0.00072
          Condensed to atoms (all electrons):
               1          2          3          4          5
     1  C    4.564549   0.350644   0.350645   0.350641   0.350643
     2  H    0.350644   0.419873   0.003361   0.003362  -0.019021
     3  H    0.350645   0.003361   0.419874  -0.019021   0.003361
     4  H    0.350641   0.003362  -0.019021   0.419873   0.003362
     5  H    0.350643  -0.019021   0.003361   0.003362   0.419874
          Atomic-Atomic Spin Densities.
               1          2          3          4          5
     1  C    0.296295   0.048824   0.048823   0.048827   0.048825
     2  H    0.048824   0.085876  -0.006316  -0.006317   0.005031
     3  H    0.048823  -0.006316   0.085873   0.005031  -0.006316
     4  H    0.048827  -0.006317   0.005031   0.085884  -0.006317
     5  H    0.048825   0.005031  -0.006316  -0.006317   0.085880
 Mulliken charges and spin densities:
               1          2
     1  C    0.032877   0.491594
     2  H    0.241780   0.127099
     3  H    0.241779   0.127095
     4  H    0.241783   0.127109
     5  H    0.241780   0.127103
 Sum of Mulliken charges =   1.00000   1.00000
 Mulliken charges and spin densities with hydrogens summed into heavy atoms:
               1          2
     1  C    1.000000   1.000000
 Electronic spatial extent (au):  <R**2>=             27.1664
 Charge=              1.0000 electrons
 Dipole moment (field-independent basis, Debye):
    X=             -0.0000    Y=             -0.0000    Z=              0.0000  Tot=              0.0000
 Quadrupole moment (field-independent basis, Debye-Ang):
   XX=             -4.8514   YY=             -5.0938   ZZ=             -4.0947
   XY=             -0.0117   XZ=              0.4929   YZ=             -0.0236
 Traceless Quadrupole moment (field-independent basis, Debye-Ang):
   XX=             -0.1714   YY=             -0.4139   ZZ=              0.5853
   XY=             -0.0117   XZ=              0.4929   YZ=             -0.0236
 Octapole moment (field-independent basis, Debye-Ang**2):
[...]
  33    H  5  py     Ryd( 2p)     0.00015       1.68327
  34    H  5  pz     Ryd( 2p)     0.00035       1.82443

     Population inversion found on atom  C  1
     Population inversion found on atom  H  2
     Population inversion found on atom  H  3
     Population inversion found on atom  H  4
     Population inversion found on atom  H  5


 Summary of Natural Population Analysis:

                                     Natural Population
             Natural    ---------------------------------------------
  Atom No    Charge        Core      Valence    Rydberg      Total
 --------------------------------------------------------------------
    C  1    0.06832      0.99997     1.93038    0.00134     2.93168
    H  2    0.23292      0.00000     0.26650    0.00058     0.26708
    H  3    0.23292      0.00000     0.26650    0.00058     0.26708
    H  4    0.23293      0.00000     0.26649    0.00058     0.26707
    H  5    0.23292      0.00000     0.26649    0.00058     0.26708
 ====================================================================
 * Total *  1.00000      0.99997     2.99636    0.00367     4.00000

                                 Natural Population
 ---------------------------------------------------------
   Core                       0.99997 ( 99.9966% of    1)
   Valence                    2.99636 ( 99.8786% of    3)
   Natural Minimal Basis      3.99633 ( 99.9081% of    4)
   Natural Rydberg Basis      0.00367 (  0.0919% of    4)
 ---------------------------------------------------------

    Atom No         Natural Electron Configuration
 ----------------------------------------------------------------------------
      C  1      [core]2s( 0.65)2p( 1.28)
      H  2            1s( 0.27)
      H  3            1s( 0.27)
      H  4            1s( 0.27)
      H  5            1s( 0.27)


 Wiberg bond index matrix in the NAO basis:

     Atom    1       2       3       4       5
     ---- ------  ------  ------  ------  ------
   1.  C  0.0000  0.3439  0.3440  0.3439  0.3439
   2.  H  0.3439  0.0000  0.0157  0.0157  0.0162
   3.  H  0.3440  0.0157  0.0000  0.0162  0.0157
   4.  H  0.3439  0.0157  0.0162  0.0000  0.0157
   5.  H  0.3439  0.0162  0.0157  0.0157  0.0000


 Wiberg bond index, Totals by atom:

     Atom    1
     ---- ------
   1.  C  1.3758
   2.  H  0.3916
   3.  H  0.3916
   4.  H  0.3916
   5.  H  0.3916


 NBI: Natural Binding Index (NCU strength parameters)

     Atom    1       2       3       4       5
     ---- ------  ------  ------  ------  ------
   1.  C  0.0000  0.4147  0.4147  0.4147  0.4147
   2.  H  0.4147  0.0000  0.0887  0.0887  0.0900
   3.  H  0.4147  0.0887  0.0000  0.0900  0.0887
   4.  H  0.4147  0.0887  0.0900  0.0000  0.0887
   5.  H  0.4147  0.0900  0.0887  0.0887  0.0000


 NATURAL BOND ORBITAL ANALYSIS, beta spin orbitals:

                            Occupancies       Lewis Structure    Low   High
         Max    Occ     -------------------  -----------------   occ   occ
  Cycle  Ctr   Thresh    Lewis   non-Lewis     CR  BD  nC  LP    (L)   (NL)
 ============================================================================
    1     2     0.95     2.93167   1.06833      1   0   0   3     3      4
 Atom 1 hybrids are linearly dependent; projection threshold raised to 0.67
    2     2     0.91     2.93167   1.06833      1   0   0   3     3      4
    3     2     0.89     3.68992   0.31008      1   3   0   0     0      1
 ----------------------------------------------------------------------------

 Structure accepted: No low occupancy Lewis orbitals

 The molecular units found in the alpha and beta manifolds are inequivalent.
 For labelling purposes, the molecular units of the beta system will be used.

 -------------------------------------------------------
   Core                      0.99997 ( 99.997% of   1)
   Valence Lewis             2.68996 ( 89.665% of   3)
  ==================      =============================
   Total Lewis               3.68992 ( 92.248% of   4)
  -----------------------------------------------------
   Valence non-Lewis         0.30955 (  7.739% of   4)
   Rydberg non-Lewis         0.00053 (  0.013% of   4)
  ==================      =============================
   Total non-Lewis           0.31008 (  7.752% of   4)
 -------------------------------------------------------


     (Occupancy)   Bond orbital / Coefficients / Hybrids
 ------------------ Lewis ------------------------------------------------------
   1. (0.99997) CR ( 1) C  1            s(100.00%)
                                         1.0000  0.0000  0.0000  0.0000  0.0000
                                         0.0000  0.0000  0.0000  0.0000  0.0000
                                         0.0000  0.0000  0.0000  0.0000
   2. (0.89676) BD ( 1) C  1- H  2
               ( 71.38%)   0.8448* C  1 s( 44.40%)p 1.25( 55.55%)d 0.00(  0.05%)
                                         0.0000  0.6663 -0.0034 -0.5618 -0.0050
                                         0.3972  0.0036  0.2864  0.0026 -0.0091
                                        -0.0009 -0.0181  0.0013 -0.0114
               ( 28.62%)   0.5350* H  2 s( 99.83%)p 0.00(  0.17%)
                                         0.9991  0.0073  0.0285 -0.0211  0.0200
   3. (0.89644) BD ( 1) C  1- H  3
               ( 71.32%)   0.8445* C  1 s( 11.19%)p 7.93( 88.73%)d 0.01(  0.08%)
                                         0.0000  0.3346 -0.0017  0.6595  0.0059
                                         0.5963  0.0053 -0.3110 -0.0028  0.0074
                                         0.0107  0.0161  0.0083 -0.0170
               ( 28.68%)   0.5355* H  3 s( 99.83%)p 0.00(  0.17%)
                                         0.9991  0.0073 -0.0322 -0.0160 -0.0190
   4. (0.89675) BD ( 1) C  1- H  5
               ( 71.38%)   0.8449* C  1 s( 44.40%)p 1.25( 55.55%)d 0.00(  0.05%)
                                         0.0000  0.6663 -0.0034  0.2307  0.0021
                                        -0.6966 -0.0062 -0.1302 -0.0012  0.0057
                                        -0.0164  0.0106 -0.0084  0.0077
               ( 28.62%)   0.5350* H  5 s( 99.83%)p 0.00(  0.17%)
                                         0.9991  0.0073 -0.0011  0.0198  0.0355
 ---------------- non-Lewis ----------------------------------------------------
   5. (0.00000) LV ( 1) C  1            s(  0.00%)p 1.00(100.00%)
   6. (0.26694) LV ( 1) H  4            s( 99.83%)p 0.00(  0.17%)
                                         0.9991  0.0074  0.0048  0.0173 -0.0364
   7. (0.01439) BD*( 1) C  1- H  2
               ( 28.62%)   0.5350* C  1 s( 44.40%)p 1.25( 55.55%)d 0.00(  0.05%)
                                         0.0000 -0.6663  0.0034  0.5618  0.0050
                                        -0.3972 -0.0036 -0.2864 -0.0026  0.0091
                                         0.0009  0.0181 -0.0013  0.0114
               ( 71.38%)  -0.8448* H  2 s( 99.83%)p 0.00(  0.17%)
                                        -0.9991 -0.0073 -0.0285  0.0211 -0.0200
   8. (0.01382) BD*( 1) C  1- H  3
               ( 28.68%)   0.5355* C  1 s( 11.19%)p 7.93( 88.73%)d 0.01(  0.08%)
                                         0.0000 -0.3346  0.0017 -0.6595 -0.0059
                                        -0.5963 -0.0053  0.3110  0.0028 -0.0074
                                        -0.0107 -0.0161 -0.0083  0.0170
               ( 71.32%)  -0.8445* H  3 s( 99.83%)p 0.00(  0.17%)
                                        -0.9991 -0.0073  0.0322  0.0160  0.0190
   9. (0.01439) BD*( 1) C  1- H  5
               ( 28.62%)   0.5350* C  1 s( 44.40%)p 1.25( 55.55%)d 0.00(  0.05%)
                                         0.0000 -0.6663  0.0034 -0.2307 -0.0021
                                         0.6966  0.0062  0.1302  0.0012 -0.0057
                                         0.0164 -0.0106  0.0084 -0.0077
               ( 71.38%)  -0.8449* H  5 s( 99.83%)p 0.00(  0.17%)
                                        -0.9991 -0.0073  0.0011 -0.0198 -0.0355
  10. (0.00001) RY ( 1) C  1            s( 97.71%)p 0.00(  0.00%)d 0.02(  2.29%)
  11. (0.00000) RY ( 2) C  1            s(  0.00%)p 1.00(100.00%)d 0.00(  0.00%)
  12. (0.00000) RY ( 3) C  1            s(  0.00%)p 1.00(100.00%)d 0.00(  0.00%)
  13. (0.00000) RY ( 4) C  1            s(  0.00%)p 1.00(100.00%)d 0.00(  0.00%)
  14. (0.00000) RY ( 5) C  1            s(  0.00%)p 1.00(  0.02%)d99.99( 99.98%)
  15. (0.00000) RY ( 6) C  1            s(  1.10%)p 0.03(  0.03%)d89.92( 98.87%)
  16. (0.00000) RY ( 7) C  1            s(  0.00%)p 1.00(  0.07%)d99.99( 99.93%)
  17. (0.00000) RY ( 8) C  1            s(  0.07%)p 0.21(  0.01%)d99.99( 99.92%)
  18. (0.00000) RY ( 9) C  1            s(  1.13%)p 0.04(  0.04%)d87.09( 98.82%)
  19. (0.00008) RY ( 1) H  2            s(  0.00%)p 1.00(100.00%)
  20. (0.00005) RY ( 2) H  2            s( 47.99%)p 1.08( 52.01%)
  21. (0.00000) RY ( 3) H  2            s( 27.04%)p 2.70( 72.96%)
  22. (0.00000) RY ( 4) H  2            s( 25.14%)p 2.98( 74.86%)
  23. (0.00008) RY ( 1) H  3            s(  0.00%)p 1.00(100.00%)
  24. (0.00005) RY ( 2) H  3            s( 47.99%)p 1.08( 52.01%)
  25. (0.00000) RY ( 3) H  3            s( 27.04%)p 2.70( 72.96%)
  26. (0.00000) RY ( 4) H  3            s( 25.14%)p 2.98( 74.86%)
  27. (0.00008) RY ( 1) H  4            s(  0.00%)p 1.00(100.00%)
  28. (0.00005) RY ( 2) H  4            s( 47.99%)p 1.08( 52.01%)
  29. (0.00000) RY ( 3) H  4            s( 25.14%)p 2.98( 74.86%)
  30. (0.00000) RY ( 4) H  4            s( 27.04%)p 2.70( 72.96%)
  31. (0.00008) RY ( 1) H  5            s(  0.00%)p 1.00(100.00%)
  32. (0.00005) RY ( 2) H  5            s( 47.99%)p 1.08( 52.01%)
  33. (0.00000) RY ( 3) H  5            s( 25.14%)p 2.98( 74.86%)
  34. (0.00000) RY ( 4) H  5            s( 27.04%)p 2.70( 72.96%)


 NHO DIRECTIONALITY AND BOND BENDING (deviation from line of nuclear centers at
                                      the position of maximum hybrid amplitude)

         [Thresholds for printing:  angular deviation  >  1.0 degree]
                                    p- or d-character  > 25.0%
                                    orbital occupancy  >  0.10e

                        Line of Centers        Hybrid 1             Hybrid 2
                        ---------------  -------------------  ------------------
           NBO            Theta   Phi    Theta   Phi    Dev   Theta   Phi    Dev
 ===============================================================================
   2. BD ( 1) C  1- H  2  106.1  137.9    67.1  145.1  39.7     --     --    --
   3. BD ( 1) C  1- H  3   75.6   31.4   109.1   42.1  35.1     --     --    --
   4. BD ( 1) C  1- H  5  139.3  288.1    99.7  288.0  39.7     --     --    --


 SECOND ORDER PERTURBATION THEORY ANALYSIS OF FOCK MATRIX IN NBO BASIS

     Threshold for printing:   0.25 kcal/mol
    (Intermolecular threshold: 0.03 kcal/mol)
                                                          E(2) E(NL)-E(L) F(L,NL)
      Donor (L) NBO              Acceptor (NL) NBO      kcal/mol   a.u.    a.u.
 ===============================================================================

 within unit  1
    2. BD ( 1) C  1- H  2       5. LV ( 1) C  1           15.21    0.45   0.104
    2. BD ( 1) C  1- H  2       7. BD*( 1) C  1- H  2      0.70    0.87   0.031
    2. BD ( 1) C  1- H  2       8. BD*( 1) C  1- H  3      2.08    0.87   0.054
    2. BD ( 1) C  1- H  2       9. BD*( 1) C  1- H  5      0.90    0.87   0.035
    2. BD ( 1) C  1- H  2      13. RY ( 4) C  1            0.44    1.00   0.027
    2. BD ( 1) C  1- H  2      14. RY ( 5) C  1            0.32    2.76   0.038
    2. BD ( 1) C  1- H  2      16. RY ( 7) C  1            0.46    2.78   0.045
    2. BD ( 1) C  1- H  2      24. RY ( 2) H  3            0.60    1.97   0.043
    3. BD ( 1) C  1- H  3       5. LV ( 1) C  1           17.85    0.38   0.104
    3. BD ( 1) C  1- H  3       7. BD*( 1) C  1- H  2      0.61    0.81   0.028
    3. BD ( 1) C  1- H  3       8. BD*( 1) C  1- H  3      1.67    0.80   0.046
    3. BD ( 1) C  1- H  3       9. BD*( 1) C  1- H  5      0.61    0.81   0.028
    3. BD ( 1) C  1- H  3      13. RY ( 4) C  1            0.48    0.93   0.027
    3. BD ( 1) C  1- H  3      14. RY ( 5) C  1            0.35    2.70   0.039
    3. BD ( 1) C  1- H  3      16. RY ( 7) C  1            0.44    2.71   0.044
    3. BD ( 1) C  1- H  3      19. RY ( 1) H  2            0.26    2.12   0.030
    3. BD ( 1) C  1- H  3      20. RY ( 2) H  2            0.32    1.90   0.031
    3. BD ( 1) C  1- H  3      31. RY ( 1) H  5            0.26    2.12   0.030
    3. BD ( 1) C  1- H  3      32. RY ( 2) H  5            0.32    1.90   0.031
    4. BD ( 1) C  1- H  5       5. LV ( 1) C  1           15.21    0.45   0.104
    4. BD ( 1) C  1- H  5       7. BD*( 1) C  1- H  2      0.90    0.87   0.035
    4. BD ( 1) C  1- H  5       8. BD*( 1) C  1- H  3      2.08    0.87   0.054
    4. BD ( 1) C  1- H  5       9. BD*( 1) C  1- H  5      0.70    0.87   0.031
    4. BD ( 1) C  1- H  5      13. RY ( 4) C  1            0.35    1.00   0.024
    4. BD ( 1) C  1- H  5      14. RY ( 5) C  1            0.44    2.76   0.044
    4. BD ( 1) C  1- H  5      24. RY ( 2) H  3            0.60    1.97   0.043

 from unit  1 to unit  2
    1. CR ( 1) C  1             6. LV ( 1) H  4            0.12   10.37   0.045
    1. CR ( 1) C  1            28. RY ( 2) H  4            0.04   11.75   0.026
    2. BD ( 1) C  1- H  2       6. LV ( 1) H  4           59.83    0.59   0.238
    2. BD ( 1) C  1- H  2      27. RY ( 1) H  4            0.09    2.18   0.018
    2. BD ( 1) C  1- H  2      28. RY ( 2) H  4            2.63    1.97   0.091
    2. BD ( 1) C  1- H  2      29. RY ( 3) H  4            0.06    1.88   0.014
    2. BD ( 1) C  1- H  2      30. RY ( 4) H  4            0.03    2.11   0.010
    3. BD ( 1) C  1- H  3       6. LV ( 1) H  4           25.95    0.53   0.148
    3. BD ( 1) C  1- H  3      28. RY ( 2) H  4            1.58    1.90   0.069
    3. BD ( 1) C  1- H  3      29. RY ( 3) H  4            0.15    1.82   0.021
    4. BD ( 1) C  1- H  5       6. LV ( 1) H  4           59.83    0.59   0.238
    4. BD ( 1) C  1- H  5      27. RY ( 1) H  4            0.09    2.18   0.018
    4. BD ( 1) C  1- H  5      28. RY ( 2) H  4            2.63    1.97   0.091
    4. BD ( 1) C  1- H  5      29. RY ( 3) H  4            0.06    1.88   0.014
    4. BD ( 1) C  1- H  5      30. RY ( 4) H  4            0.03    2.11   0.010

 from unit  2 to unit  1
       None above threshold

 within unit  2
       None above threshold


 NATURAL BOND ORBITALS (Summary):

                                                     Principal Delocalizations
           NBO                 Occupancy    Energy   (geminal,vicinal,remote)
 ===============================================================================
 Molecular unit  1  (CH3)
 ------ Lewis --------------------------------------
    1. CR ( 1) C  1             0.99997   -10.56304  6(r),28(r)
    2. BD ( 1) C  1- H  2       0.89676    -0.78379  6(r),5(g),28(r),8(g),9(g)
                                                     7(g),24(v),16(g),13(g)
                                                     14(g),27(r),29(r),30(r)
    3. BD ( 1) C  1- H  3       0.89644    -0.71844  6(r),5(g),8(g),28(r),7(g)
                                                     9(g),13(g),16(g),14(g)
                                                     20(v),32(v),19(v),31(v)
                                                     29(r)
    4. BD ( 1) C  1- H  5       0.89675    -0.78379  6(r),5(g),28(r),8(g),7(g)
                                                     9(g),24(v),14(g),13(g)
                                                     27(r),29(r),30(r)
 ------ non-Lewis ----------------------------------
    5. LV ( 1) C  1             0.00000    -0.33679
    7. BD*( 1) C  1- H  2       0.01439     0.08848
    8. BD*( 1) C  1- H  3       0.01382     0.08172
    9. BD*( 1) C  1- H  5       0.01439     0.08849
   10. RY ( 1) C  1             0.00001     0.48558
   11. RY ( 2) C  1             0.00000     0.21148
   12. RY ( 3) C  1             0.00000     0.21054
   13. RY ( 4) C  1             0.00000     0.21441
   14. RY ( 5) C  1             0.00000     1.98012
   15. RY ( 6) C  1             0.00000     1.74707
   16. RY ( 7) C  1             0.00000     1.99574
   17. RY ( 8) C  1             0.00000     1.67302
   18. RY ( 9) C  1             0.00000     1.79050
   19. RY ( 1) H  2             0.00008     1.39848
   20. RY ( 2) H  2             0.00005     1.18611
   21. RY ( 3) H  2             0.00000     1.32772
   22. RY ( 4) H  2             0.00000     1.10009
   23. RY ( 1) H  3             0.00008     1.39849
   24. RY ( 2) H  3             0.00005     1.18608
   25. RY ( 3) H  3             0.00000     1.32772
   26. RY ( 4) H  3             0.00000     1.10011
   31. RY ( 1) H  5             0.00008     1.39849
   32. RY ( 2) H  5             0.00005     1.18609
   33. RY ( 3) H  5             0.00000     1.10011
   34. RY ( 4) H  5             0.00000     1.32773
          -------------------------------
                 Total Lewis    3.68992  ( 98.8480%)
           Valence non-Lewis    0.04260  (  1.1413%)
           Rydberg non-Lewis    0.00040  (  0.0108%)
          -------------------------------
               Total unit  1    3.73293  (100.0000%)
              Charge unit  1    0.76707

 Molecular unit  2  (H)
 ------ Lewis --------------------------------------
 ------ non-Lewis ----------------------------------
    6. LV ( 1) H  4             0.26694    -0.18950
   27. RY ( 1) H  4             0.00008     1.39848
   28. RY ( 2) H  4             0.00005     1.18611
   29. RY ( 3) H  4             0.00000     1.10014
   30. RY ( 4) H  4             0.00000     1.32770
          -------------------------------
                 Total Lewis    0.00000  (  0.0000%)
           Valence non-Lewis    0.26694  ( 99.9516%)
           Rydberg non-Lewis    0.00013  (  0.0484%)
          -------------------------------
               Total unit  2    0.26707  (100.0000%)
              Charge unit  2    0.23293

 $CHOOSE
  ALPHA
   BOND S 1 2 S 1 3 S 1 4 S 1 5 END
  END
  BETA
   BOND S 1 2 S 1 3 S 1 5 END
  END
 $END

 Maximum scratch memory used by NBO was 292591 words (2.23 MB)
 Maximum scratch memory used by G16NBO was 16523 words (0.13 MB)

 Opening RunExU unformatted file "/scratch/yanfeig/Gau-34202.EUF"
 Read unf file /scratch/yanfeig/Gau-34202.EUF:
 Label Gaussian matrix elements                                         IVers= 1 NLab= 2 Version=EM64L-G16RevB.01
 Title None                                                            
 NAtoms=     5 NBasis=    34 NBsUse=    34 ICharg=     1 Multip=     2 NE=     9 Len12L=8 Len4L=8 IOpCl= 0 ICGU= -1
 GAUSSIAN SCALARS                    NI= 1 NR= 1 NTot=       1 LenBuf=    2 NRI=1 N=    1000
 NPA CHARGES                         NI= 0 NR= 1 NTot=       5 LenBuf=  256 NRI=1 N=       5
 Recovered energy= -39.9660423124     dipole=     -0.000006122360     -0.000011433969      0.000005956644
 1\1\GINC-NODE70\SP\ROB3LYP\def2SVP\C1H4(1+,2)\YANFEIG\03-Feb-2020\0\\#
  b3lyp/def2svp scf=(maxcycle=512, xqc) pop=(full,mbs,hirshfeld,nbo6rea
 d)\\None\\1,2\C,0,0.,0.,0.\H,0,-0.64458,-0.76718,-0.40871\H,0,-0.34609
 ,0.97258,-0.32466\H,0,-0.0221,-0.04843,1.08086\H,0,1.01277,-0.15697,-0
 .34748\\Version=EM64L-G16RevB.01\State=2-A\HF=-39.9660423\RMSD=2.299e-
 09\Dipole=0.0000051,-0.0000044,0.0000126\Quadrupole=-0.2278614,0.19744
 59,0.0304155,-0.2014186,-0.1648254,0.4136914\PG=C01 [X(C1H4)]\\@


 GOOD SENSE ABOUT TRIVIALITIES IS BETTER THAN NONSENSE
 ABOUT THINGS THAT MATTER

                                       -- MAX BEERBOHM
 Job cpu time:       0 days  0 hours  1 minutes 18.5 seconds.
 Elapsed time:       0 days  0 hours  0 minutes  4.1 seconds.
 File lengths (MBytes):  RWF=      6 Int=      0 D2E=      0 Chk=      1 Scr=      1
 Normal termination of Gaussian 16 at Mon Feb  3 15:17:43 2020.
