      -----------------------------------------------------------      
     |                   =====================                   |     
     |                           x T B                           |     
     |                   =====================                   |     
     |                         S. Grimme                         |     
     |          Mulliken Center for Theoretical Chemistry        |     
     |                    University of Bonn                     |     
     |                  Version 6.1 (SAW190416)                  |     
      -----------------------------------------------------------      

   This program is distributed in the hope that it will be useful,
   but WITHOUT ANY WARRANTY; without even the implied warranty of
   MERCHANTABILITY or FITNESS FOR A PARTICULAR PURPOSE.
   
   FOR NON-COMMERCIAL, ACADEMIA USE ONLY.
   
   Cite this work as:
   S. Grimme, C. Bannwarth, P. Shushkov, J. Comput. Theory Chem., 2017,
   13, 1989-2009. DOI: 10.1021/acs.jctc.7b00118
   C. Bannwarth, S. Ehlert and S. Grimme., J. Comput. Theory Chem., 2019,
   just accepted. DOI: 10.1021/acs.jctc.8b01176
   
   for sTDA-xTB:
   S. Grimme and C. Bannwarth, J. Chem. Phys., 2016, 145, 054103.
   DOI: 10.1063/1.4959605
   
   in the mass-spec context:
   V. Asgeirsson, C. Bauer and S. Grimme, Chem. Sci., 2017, 8, 4879.
   DOI: 10.1039/c7sc00601b
   
   for metadynamics refer to:
   S. Grimme, J. Chem. Theory Comput. Article ASAP, 2019,
   DOI: 10.1021/acs.jctc.9b00143
   
   with help from (in alphabetical order)
   C. Bannwarth, F. Bohle, G. Brandenburg, E. Caldeweyher, M. Checinski,
   S. Dohm, S. Ehlert, S. Ehrlich, F. März, H. Neugebauer, J. Pisarek,
   P. Pracht, P. Shushkov, and S. Spicher.
   
 * started run on 2020/02/02 at 20:20:04.806     

           -------------------------------------------------
          |                Calculation Setup                |
           -------------------------------------------------

          program call               : /data/yanfei/software/xtb_exe/bin/xtb CHEMBL1521196.sdf -opt
          coordinate file            : CHEMBL1521196.sdf
          omp threads                :                    32
          number of atoms            :                    28
          number of electrons        :                    88
          charge                     :                     0
          spin                       :                   0.0
          first test random number   :      0.37834245160180


########################################################################
# WARNING! Please study the warnings concerning your input carefully
#  - XTBHOME is not set, using HOME instead
#  - XTBPATH is not set, using XTBHOME instead
#  - the use of '-opt' is discouraged, please use '--opt' next time
########################################################################

           ------------------------------------------------- 
          |                 G F N 2 - x T B                 |
          | Geometry, Frequencies, Noncovalent interactions |
          |            JCTC 2018 parametrisation            |
           ------------------------------------------------- 
             k(s)              :                1.8500
             k(p)              :                2.2300
             k(d)              :                2.2300
             k(f)              :                2.0000
             kEN (H0ij)        :               -2.0000
             D4 a1             :                0.5200
             D4 a2             :                5.0000
             D4 s6             :                1.0000
             D4 s8             :                2.7000
             D4 s9             :                5.0000
             alphaj            :                2.0000

  Z AO/shell   Hii/eV     exponent
  1     Wed Apr 25 08:07:45 CEST 2018   EN: 2.200 GM2: 0.406  GM3: 0.0800  RAES: 1.40
     1s    -10.707211    1.230000
  6     Wed Apr 25 08:07:45 CEST 2018   EN: 2.550 GM2: 0.538  GM3: 0.1500  RAES: 3.00
     2s    -13.970922    2.096432
     2p    -10.063292    1.800000
  8     Wed Apr 25 08:07:45 CEST 2018   EN: 3.440 GM2: 0.452  GM3:-0.0517  RAES: 1.80
     2s    -20.229985    2.439742
     2p    -15.503117    2.137023
 16     Tue Apr 24 11:44:34 CEST 2018   EN: 2.580 GM2: 0.340  GM3:-0.0502  RAES: 3.10
     3s    -20.029654    1.981333
     3p    -11.377694    2.025643
     3d     -0.420282    1.702555


            Z     q(EN)     CN     RAES       Cart. coordinates
     1  C   4.0   -0.20    4.01    3.64    10.79468    -1.73647    -0.24453
     2  C   4.0   -0.03    3.04    3.02     8.16116    -0.74436    -0.19370
     3  C   4.0   -0.09    3.22    3.04     6.91356     0.63363    -2.01313
     4  C   4.0   -0.06    3.23    3.04     4.39456     1.24495    -1.27708
     5  C   4.0    0.00    3.04    3.02     3.74525     0.29291     1.06921
     6  C   4.0   -0.07    3.06    3.02     1.48343     0.47905     2.51069
     7  C   4.0    0.00    3.06    3.02    -0.87022     0.38720     1.58435
     8  C   4.0    0.16    3.05    3.02    -3.05871     0.60925     3.34822
     9  O   6.0   -0.39    1.00    1.80    -3.02696     0.91066     5.62099
    10  C   4.0    0.01    3.09    3.02    -5.32109     0.39628     1.76576
    11  C   4.0   -0.08    3.02    3.02    -7.82441     0.49133     2.51334
    12  C   4.0   -0.10    3.02    3.02    -9.66822     0.23905     0.63797
    13  C   4.0   -0.10    3.02    3.02    -8.98281    -0.09959    -1.91240
    14  C   4.0   -0.08    3.02    3.02    -6.44170    -0.19124    -2.63125
    15  C   4.0    0.01    3.10    3.02    -4.64211     0.06331    -0.75117
    16  C   4.0    0.17    3.04    3.02    -1.88066     0.02929    -1.01913
    17  O   6.0   -0.40    1.00    1.80    -0.77006    -0.25285    -3.00164
    18  S   6.0   -0.03    2.47    3.10     6.28976    -1.27254     2.38087
    19  H   1.0    0.11    0.99    1.43    11.73577    -1.24514    -2.02106
    20  H   1.0    0.11    0.99    1.43    11.91056    -0.93749     1.30391
    21  H   1.0    0.11    0.99    1.43    10.80640    -3.79854    -0.07294
    22  H   1.0    0.12    0.99    1.43     7.75581     1.18939    -3.79419
    23  H   1.0    0.15    0.99    1.43     3.12315     2.34175    -2.44795
    24  H   1.0    0.15    0.99    1.43     1.71379     0.66310     4.55027
    25  H   1.0    0.14    0.99    1.43    -8.33350     0.75154     4.48413
    26  H   1.0    0.12    0.99    1.43   -11.65980     0.30311     1.15141
    27  H   1.0    0.12    0.99    1.43   -10.45264    -0.29366    -3.33915
    28  H   1.0    0.14    0.99    1.43    -5.89481    -0.45410    -4.59166

           ------------------------------------------------- 
          |        Self-Consistent Charge Iterations        |
           ------------------------------------------------- 

          ...................................................
          :                      SETUP                      :
          :.................................................:
          :  # basis functions                  88          :
          :  # atomic orbitals                  87          :
          :  # shells                           47          :
          :  # electrons                        88          :
          :  max. iterations                   250          :
          :  Hamiltonian                  GFN2-xTB          :
          :  restarted?                      false          :
          :  GBSA solvation                  false          :
          :  PC potential                    false          :
          :  electronic temp.          300.0000000     K    :
          :  accuracy                    1.0000000          :
          :  -> integral cutoff          0.2500000E+02      :
          :  -> integral neglect         0.1000000E-07      :
          :  -> SCF convergence          0.1000000E-05 Eh   :
          :  -> wf. convergence          0.1000000E-03 e    :
          :  Broyden damping             0.4000000          :
          ...................................................

 iter      E             dE          RMSdq      gap      omega  full diag
   1    -49.2166746 -0.492167E+02  0.522E+00    2.26       0.0  T
   2    -49.2663749 -0.497003E-01  0.289E+00    1.99       1.0  T
   3    -49.2507004  0.156745E-01  0.163E+00    2.13       1.0  T
   4    -49.2780489 -0.273485E-01  0.440E-01    2.13       1.0  T
   5    -49.2812749 -0.322596E-02  0.157E-01    2.11       1.0  T
   6    -49.2815599 -0.285003E-03  0.679E-02    2.13       1.0  T
   7    -49.2816449 -0.850296E-04  0.271E-02    2.13       1.0  T
   8    -49.2816547 -0.983113E-05  0.118E-02    2.13       1.6  T
   9    -49.2816546  0.168369E-06  0.598E-03    2.13       3.2  T
  10    -49.2816553 -0.692767E-06  0.216E-03    2.13       8.7  T
  11    -49.2816553 -0.252922E-07  0.116E-03    2.13      16.2  T
  12    -49.2816553 -0.132409E-07  0.541E-04    2.13      34.9  T
  13    -49.2816553 -0.610349E-09  0.205E-04    2.13      92.4  T

   *** convergence criteria satisfied after 13 iterations ***

         #    Occupation            Energy/Eh            Energy/eV
      -------------------------------------------------------------
         1        2.0000           -0.7403939             -20.1471
       ...           ...                  ...                  ...
        38        2.0000           -0.4402397             -11.9795
        39        2.0000           -0.4293162             -11.6823
        40        2.0000           -0.4283340             -11.6556
        41        2.0000           -0.4063762             -11.0581
        42        2.0000           -0.4032198             -10.9722
        43        2.0000           -0.3899843             -10.6120
        44        2.0000           -0.3866548             -10.5214 (HOMO)
        45                         -0.3085063              -8.3949 (LUMO)
        46                         -0.3037093              -8.2644
        47                         -0.2540159              -6.9121
        48                         -0.2300830              -6.2609
        49                         -0.2085355              -5.6745
       ...                                ...                  ...
        87                          0.7602258              20.6868
      -------------------------------------------------------------
                  HL-Gap            0.0781485 Eh            2.1265 eV
             Fermi-level           -0.3475806 Eh           -9.4581 eV

 SCC (total)                   0 d,  0 h,  0 min,  0.299 sec
 SCC setup                      ...        0 min,  0.001 sec (  0.202%)
 Dispersion                     ...        0 min,  0.001 sec (  0.200%)
 integral evaluation            ...        0 min,  0.015 sec (  4.990%)
 zeroth order Hamiltonian       ...        0 min,  0.000 sec (  0.091%)
 iterations                     ...        0 min,  0.226 sec ( 75.684%)
 molecular gradient             ...        0 min,  0.054 sec ( 18.221%)
 printout                       ...        0 min,  0.002 sec (  0.589%)

         :::::::::::::::::::::::::::::::::::::::::::::::::::::
         ::                     SUMMARY                     ::
         :::::::::::::::::::::::::::::::::::::::::::::::::::::
         :: total energy              -48.549326024628 Eh   ::
         :: gradient norm               0.051600093228 Eh/α ::
         :: HOMO-LUMO gap               2.126529661493 eV   ::
         ::.................................................::
         :: SCC energy                -49.281655305106 Eh   ::
         :: -> isotropic ES             0.051997106277 Eh   ::
         :: -> anisotropic ES           0.000403257970 Eh   ::
         :: -> anisotropic XC           0.020498315931 Eh   ::
         :: -> dispersion              -0.031548203655 Eh   ::
         :: repulsion energy            0.732560738952 Eh   ::
         :: add. restraining            0.000000000000 Eh   ::
         :::::::::::::::::::::::::::::::::::::::::::::::::::::

      ----------------------------------------------------------- 
     |                   =====================                   |
     |                        A N C O P T                        |
     |                   =====================                   |
     |               Approximate Normal Coordinate               |
     |                Rational Function Optimizer                |
      ----------------------------------------------------------- 

          ...................................................
          :                      SETUP                      :
          :.................................................:
          :   optimization level            normal          :
          :   max. optcycles                   200          :
          :   ANC micro-cycles                  20          :
          :   degrees of freedom                78          :
          :.................................................:
          :   RF solver                   davidson          :
          :   input Hessian                  false          :
          :   write xtbopt.log                true          :
          :   linear?                        false          :
          :   energy convergence         0.5000000E-05 Eh   :
          :   grad. convergence          0.1000000E-02 Eh/α :
          :   maximium RF displ.         1.0000000          :
          :   Hlow (freq-cutoff)         0.1000000E-01      :
          :   Hmax (freq-cutoff)         5.0000000          :
          :   S6 in model hess.         20.0000000          :
          ...................................................

generating ANC from model Hessian ...
Using Lindh-Hessian (1995)
 Shifting diagonal of input Hessian by   9.436108971483823E-003
 Lowest  eigenvalues of input Hessian
   -0.000000   -0.000000   -0.000000    0.000000    0.000000    0.000000
    0.010000    0.010340    0.011225    0.012982    0.016132    0.017270
    0.019714    0.021306    0.022665    0.023585    0.026846    0.029529
 Highest eigenvalues
    1.868922    1.983388    2.026421    2.067898    2.276749    2.297936
 

........................................................................
.............................. CYCLE    1 ..............................
........................................................................
   1    -49.2816553 -0.492817E+02  0.907E-05    2.13       0.0  T
   2    -49.2816553 -0.328413E-10  0.545E-05    2.13     347.0  T
   3    -49.2816553 -0.276756E-10  0.397E-05    2.13     475.8  T
     SCC iter.                  ...        0 min,  0.055 sec
     gradient                   ...        0 min,  0.041 sec
 * total energy  :   -48.5493260 Eh     change       -0.1795082E-07 Eh
   gradient norm :     0.0516014 Eh/α   predicted     0.0000000E+00 (-100.00%)
   displ. norm   :     0.2150263 α      lambda       -0.5659386E-02
   maximum displ.:     0.0708523 α      in ANC's #7, #8, #4, ...

........................................................................
.............................. CYCLE    2 ..............................
........................................................................
   1    -49.2994224 -0.492994E+02  0.249E-01    2.09       0.0  T
   2    -49.2994871 -0.647063E-04  0.137E-01    2.11       1.0  T
   3    -49.2993883  0.988915E-04  0.857E-02    2.10       1.0  T
   4    -49.2995628 -0.174527E-03  0.254E-02    2.10       1.0  T
   5    -49.2995679 -0.515571E-05  0.137E-02    2.11       1.4  T
   6    -49.2995697 -0.175302E-05  0.350E-03    2.11       5.4  T
   7    -49.2995700 -0.300567E-06  0.963E-04    2.11      19.6  T
     SCC iter.                  ...        0 min,  0.340 sec
     gradient                   ...        0 min,  0.098 sec
 * total energy  :   -48.5531760 Eh     change       -0.3849939E-02 Eh
   gradient norm :     0.0210404 Eh/α   predicted    -0.2960543E-02 ( -23.10%)
   displ. norm   :     0.2391076 α      lambda       -0.1888146E-02
   maximum displ.:     0.0973154 α      in ANC's #4, #7, #5, ...

........................................................................
.............................. CYCLE    3 ..............................
........................................................................
   1    -49.3053656 -0.493054E+02  0.246E-01    2.07       0.0  T
   2    -49.3054144 -0.487982E-04  0.131E-01    2.07       1.0  T
   3    -49.3053020  0.112416E-03  0.836E-02    2.07       1.0  T
   4    -49.3054691 -0.167102E-03  0.227E-02    2.07       1.0  T
   5    -49.3054731 -0.397562E-05  0.124E-02    2.07       1.5  T
   6    -49.3054746 -0.150399E-05  0.314E-03    2.07       6.0  T
   7    -49.3054748 -0.238248E-06  0.892E-04    2.07      21.2  T
     SCC iter.                  ...        0 min,  0.122 sec
     gradient                   ...        0 min,  0.040 sec
 * total energy  :   -48.5543529 Eh     change       -0.1176893E-02 Eh
   gradient norm :     0.0097203 Eh/α   predicted    -0.9980550E-03 ( -15.20%)
   displ. norm   :     0.2106687 α      lambda       -0.5911016E-03
   maximum displ.:     0.0953648 α      in ANC's #4, #7, #3, ...

........................................................................
.............................. CYCLE    4 ..............................
........................................................................
   1    -49.3037582 -0.493038E+02  0.173E-01    2.05       0.0  T
   2    -49.3037718 -0.136411E-04  0.933E-02    2.05       1.0  T
   3    -49.3037030  0.688261E-04  0.611E-02    2.05       1.0  T
   4    -49.3037924 -0.893951E-04  0.137E-02    2.05       1.4  T
   5    -49.3037935 -0.107966E-05  0.747E-03    2.05       2.5  T
   6    -49.3037942 -0.682641E-06  0.172E-03    2.05      11.0  T
   7    -49.3037942 -0.704689E-07  0.546E-04    2.05      34.6  T
     SCC iter.                  ...        0 min,  0.126 sec
     gradient                   ...        0 min,  0.027 sec
 * total energy  :   -48.5547928 Eh     change       -0.4399220E-03 Eh
   gradient norm :     0.0078033 Eh/α   predicted    -0.3087121E-03 ( -29.83%)
   displ. norm   :     0.3091733 α      lambda       -0.5666076E-03
   maximum displ.:     0.1521338 α      in ANC's #4, #2, #3, ...

........................................................................
.............................. CYCLE    5 ..............................
........................................................................
   1    -49.3004886 -0.493005E+02  0.234E-01    2.04       0.0  T
   2    -49.3005025 -0.139501E-04  0.126E-01    2.03       1.0  T
   3    -49.3003850  0.117527E-03  0.738E-02    2.04       1.0  T
   4    -49.3005246 -0.139650E-03  0.168E-02    2.03       1.1  T
   5    -49.3005251 -0.461502E-06  0.820E-03    2.03       2.3  T
   6    -49.3005263 -0.121088E-05  0.158E-03    2.03      11.9  T
   7    -49.3005264 -0.436962E-07  0.781E-04    2.03      24.2  T
     SCC iter.                  ...        0 min,  0.150 sec
     gradient                   ...        0 min,  0.066 sec
 * total energy  :   -48.5551837 Eh     change       -0.3909190E-03 Eh
   gradient norm :     0.0077921 Eh/α   predicted    -0.3103850E-03 ( -20.60%)
   displ. norm   :     0.2598115 α      lambda       -0.3346828E-03
   maximum displ.:     0.1576862 α      in ANC's #2, #4, #1, ...

........................................................................
.............................. CYCLE    6 ..............................
........................................................................
   1    -49.2996092 -0.492996E+02  0.172E-01    2.03       0.0  T
   2    -49.2996148 -0.557345E-05  0.950E-02    2.02       1.0  T
   3    -49.2995813  0.335360E-04  0.394E-02    2.03       1.0  T
   4    -49.2996196 -0.383288E-04  0.119E-02    2.02       1.6  T
   5    -49.2996202 -0.602991E-06  0.303E-03    2.03       6.2  T
   6    -49.2996204 -0.192952E-06  0.114E-03    2.03      16.5  T
   7    -49.2996204 -0.118421E-07  0.638E-04    2.03      29.6  T
     SCC iter.                  ...        0 min,  0.113 sec
     gradient                   ...        0 min,  0.037 sec
 * total energy  :   -48.5554414 Eh     change       -0.2576576E-03 Eh
   gradient norm :     0.0079409 Eh/α   predicted    -0.1786401E-03 ( -30.67%)
   displ. norm   :     0.2861810 α      lambda       -0.3344806E-03
   maximum displ.:     0.1973876 α      in ANC's #2, #4, #1, ...

........................................................................
.............................. CYCLE    7 ..............................
........................................................................
   1    -49.3007774 -0.493008E+02  0.176E-01    2.03       0.0  T
   2    -49.3007850 -0.759381E-05  0.979E-02    2.03       1.0  T
   3    -49.3007704  0.146423E-04  0.291E-02    2.03       1.0  T
   4    -49.3007880 -0.176781E-04  0.120E-02    2.03       1.6  T
   5    -49.3007887 -0.708880E-06  0.500E-03    2.03       3.8  T
   6    -49.3007892 -0.490248E-06  0.167E-03    2.03      11.3  T
   7    -49.3007893 -0.398804E-07  0.872E-04    2.03      21.7  T
     SCC iter.                  ...        0 min,  0.199 sec
     gradient                   ...        0 min,  0.046 sec
 * total energy  :   -48.5557042 Eh     change       -0.2628743E-03 Eh
   gradient norm :     0.0072751 Eh/α   predicted    -0.1809376E-03 ( -31.17%)
   displ. norm   :     0.2927653 α      lambda       -0.2825128E-03
   maximum displ.:     0.2176084 α      in ANC's #2, #1, #4, ...

........................................................................
.............................. CYCLE    8 ..............................
........................................................................
   1    -49.3022662 -0.493023E+02  0.169E-01    2.04       0.0  T
   2    -49.3022736 -0.743476E-05  0.944E-02    2.05       1.0  T
   3    -49.3022622  0.114105E-04  0.271E-02    2.04       1.0  T
   4    -49.3022766 -0.143827E-04  0.110E-02    2.04       1.7  T
   5    -49.3022772 -0.577329E-06  0.440E-03    2.04       4.3  T
   6    -49.3022776 -0.366817E-06  0.145E-03    2.04      13.0  T
   7    -49.3022776 -0.245983E-07  0.806E-04    2.04      23.4  T
     SCC iter.                  ...        0 min,  0.142 sec
     gradient                   ...        0 min,  0.032 sec
 * total energy  :   -48.5559378 Eh     change       -0.2335894E-03 Eh
   gradient norm :     0.0065882 Eh/α   predicted    -0.1533662E-03 ( -34.34%)
   displ. norm   :     0.2792336 α      lambda       -0.2534783E-03
   maximum displ.:     0.2172806 α      in ANC's #2, #1, #4, ...

........................................................................
.............................. CYCLE    9 ..............................
........................................................................
   1    -49.3036577 -0.493037E+02  0.159E-01    2.05       0.0  T
   2    -49.3036642 -0.652815E-05  0.872E-02    2.05       1.0  T
   3    -49.3036570  0.726706E-05  0.236E-02    2.05       1.0  T
   4    -49.3036662 -0.928578E-05  0.105E-02    2.05       1.8  T
   5    -49.3036668 -0.587159E-06  0.409E-03    2.05       4.6  T
   6    -49.3036672 -0.330304E-06  0.135E-03    2.05      14.0  T
   7    -49.3036672 -0.257223E-07  0.756E-04    2.05      25.0  T
     SCC iter.                  ...        0 min,  0.127 sec
     gradient                   ...        0 min,  0.033 sec
 * total energy  :   -48.5561589 Eh     change       -0.2210487E-03 Eh
   gradient norm :     0.0056206 Eh/α   predicted    -0.1366227E-03 ( -38.19%)
   displ. norm   :     0.2915966 α      lambda       -0.2586252E-03
   maximum displ.:     0.2322133 α      in ANC's #2, #1, #3, ...

........................................................................
.............................. CYCLE   10 ..............................
........................................................................
   1    -49.3042063 -0.493042E+02  0.164E-01    2.06       0.0  T
   2    -49.3042123 -0.601651E-05  0.899E-02    2.06       1.0  T
   3    -49.3042097  0.263909E-05  0.195E-02    2.05       1.0  T
   4    -49.3042132 -0.353115E-05  0.107E-02    2.06       1.8  T
   5    -49.3042143 -0.111721E-05  0.354E-03    2.06       5.3  T
   6    -49.3042146 -0.272922E-06  0.122E-03    2.06      15.5  T
   7    -49.3042146 -0.141102E-07  0.742E-04    2.06      25.5  T
     SCC iter.                  ...        0 min,  0.114 sec
     gradient                   ...        0 min,  0.059 sec
 * total energy  :   -48.5563909 Eh     change       -0.2320570E-03 Eh
   gradient norm :     0.0053194 Eh/α   predicted    -0.1403084E-03 ( -39.54%)
   displ. norm   :     0.3331788 α      lambda       -0.2819072E-03
   maximum displ.:     0.2659836 α      in ANC's #2, #1, #3, ...

........................................................................
.............................. CYCLE   11 ..............................
........................................................................
   1    -49.3039034 -0.493039E+02  0.192E-01    2.06       0.0  T
   2    -49.3039112 -0.786486E-05  0.104E-01    2.06       1.0  T
   3    -49.3039121 -0.878239E-06  0.182E-02    2.06       1.0  T
   4    -49.3039111  0.974728E-06  0.113E-02    2.06       1.7  T
   5    -49.3039136 -0.243498E-05  0.246E-03    2.06       7.7  T
   6    -49.3039137 -0.110965E-06  0.113E-03    2.06      16.8  T
     SCC iter.                  ...        0 min,  0.092 sec
     gradient                   ...        0 min,  0.040 sec
 * total energy  :   -48.5566445 Eh     change       -0.2535690E-03 Eh
   gradient norm :     0.0050861 Eh/α   predicted    -0.1566013E-03 ( -38.24%)
   displ. norm   :     0.3967493 α      lambda       -0.3086519E-03
   maximum displ.:     0.3166668 α      in ANC's #2, #1, #3, ...

........................................................................
.............................. CYCLE   12 ..............................
........................................................................
   1    -49.3028399 -0.493028E+02  0.221E-01    2.06       0.0  T
   2    -49.3028495 -0.960466E-05  0.120E-01    2.06       1.0  T
   3    -49.3028520 -0.248312E-05  0.192E-02    2.06       1.0  T
   4    -49.3028516  0.345136E-06  0.622E-03    2.06       3.0  T
   5    -49.3028524 -0.749865E-06  0.165E-03    2.06      11.5  T
   6    -49.3028524 -0.457413E-08  0.114E-03    2.06      16.6  T
     SCC iter.                  ...        0 min,  0.348 sec
     gradient                   ...        0 min,  0.113 sec
 * total energy  :   -48.5569123 Eh     change       -0.2677841E-03 Eh
   gradient norm :     0.0046507 Eh/α   predicted    -0.1786191E-03 ( -33.30%)
   displ. norm   :     0.4901958 α      lambda       -0.3173348E-03
   maximum displ.:     0.3903566 α      in ANC's #2, #1, #3, ...

........................................................................
.............................. CYCLE   13 ..............................
........................................................................
   1    -49.3010535 -0.493011E+02  0.275E-01    2.06       0.0  T
   2    -49.3010693 -0.158195E-04  0.148E-01    2.05       1.0  T
   3    -49.3010682  0.108033E-05  0.266E-02    2.06       1.0  T
   4    -49.3010648  0.339350E-05  0.212E-02    2.05       1.0  T
   5    -49.3010740 -0.917505E-05  0.376E-03    2.06       5.0  T
   6    -49.3010743 -0.283800E-06  0.157E-03    2.06      12.0  T
   7    -49.3010743 -0.519923E-08  0.877E-04    2.06      21.5  T
     SCC iter.                  ...        0 min,  0.139 sec
     gradient                   ...        0 min,  0.033 sec
 * total energy  :   -48.5571552 Eh     change       -0.2428900E-03 Eh
   gradient norm :     0.0055052 Eh/α   predicted    -0.1967970E-03 ( -18.98%)
   displ. norm   :     0.4229298 α      lambda       -0.2122825E-03
   maximum displ.:     0.3392353 α      in ANC's #2, #1, #3, ...

........................................................................
.............................. CYCLE   14 ..............................
........................................................................
   1    -49.3011871 -0.493012E+02  0.216E-01    2.05       0.0  T
   2    -49.3011962 -0.914156E-05  0.118E-01    2.05       1.0  T
   3    -49.3011970 -0.788573E-06  0.195E-02    2.05       1.0  T
   4    -49.3011963  0.743811E-06  0.120E-02    2.05       1.6  T
   5    -49.3011987 -0.244629E-05  0.326E-03    2.05       5.8  T
   6    -49.3011990 -0.220845E-06  0.131E-03    2.05      14.4  T
   7    -49.3011990 -0.600462E-08  0.761E-04    2.05      24.8  T
     SCC iter.                  ...        0 min,  0.133 sec
     gradient                   ...        0 min,  0.034 sec
 * total energy  :   -48.5572937 Eh     change       -0.1385179E-03 Eh
   gradient norm :     0.0059496 Eh/α   predicted    -0.1251278E-03 (  -9.67%)
   displ. norm   :     0.2403523 α      lambda       -0.1075702E-03
   maximum displ.:     0.1787768 α      in ANC's #2, #1, #3, ...

........................................................................
.............................. CYCLE   15 ..............................
........................................................................
   1    -49.3015337 -0.493015E+02  0.157E-01    2.05       0.0  T
   2    -49.3015399 -0.619558E-05  0.829E-02    2.05       1.0  T
   3    -49.3015257  0.141825E-04  0.281E-02    2.05       1.0  T
   4    -49.3015422 -0.164419E-04  0.118E-02    2.05       1.6  T
   5    -49.3015431 -0.895218E-06  0.323E-03    2.05       5.8  T
   6    -49.3015433 -0.266640E-06  0.799E-04    2.05      23.7  T
   7    -49.3015433 -0.348968E-08  0.491E-04    2.05      38.5  T
     SCC iter.                  ...        0 min,  0.123 sec
     gradient                   ...        0 min,  0.073 sec
 * total energy  :   -48.5573671 Eh     change       -0.7343574E-04 Eh
   gradient norm :     0.0061797 Eh/α   predicted    -0.5689688E-04 ( -22.52%)
   displ. norm   :     0.2155543 α      lambda       -0.1751523E-03
   maximum displ.:     0.1370656 α      in ANC's #2, #1, #4, ...

........................................................................
.............................. CYCLE   16 ..............................
........................................................................
   1    -49.3075583 -0.493076E+02  0.131E-01    2.05       0.0  T
   2    -49.3075630 -0.475059E-05  0.715E-02    2.05       1.0  T
   3    -49.3075607  0.235133E-05  0.166E-02    2.05       1.1  T
   4    -49.3075641 -0.341790E-05  0.859E-03    2.05       2.2  T
   5    -49.3075645 -0.429842E-06  0.311E-03    2.05       6.1  T
   6    -49.3075647 -0.219601E-06  0.107E-03    2.05      17.7  T
   7    -49.3075647 -0.136432E-07  0.578E-04    2.05      32.7  T
     SCC iter.                  ...        0 min,  0.116 sec
     gradient                   ...        0 min,  0.037 sec
 * total energy  :   -48.5574446 Eh     change       -0.7742250E-04 Eh
   gradient norm :     0.0056784 Eh/α   predicted    -0.9164627E-04 (  18.37%)
   displ. norm   :     0.2248849 α      lambda       -0.1151990E-03
   maximum displ.:     0.1323410 α      in ANC's #2, #1, #3, ...

........................................................................
.............................. CYCLE   17 ..............................
........................................................................
   1    -49.3046525 -0.493047E+02  0.145E-01    2.05       0.0  T
   2    -49.3046584 -0.589990E-05  0.776E-02    2.05       1.0  T
   3    -49.3046536  0.481137E-05  0.197E-02    2.05       1.0  T
   4    -49.3046586 -0.502979E-05  0.110E-02    2.05       1.7  T
   5    -49.3046603 -0.160879E-05  0.221E-03    2.05       8.5  T
   6    -49.3046603 -0.553960E-07  0.944E-04    2.05      20.0  T
     SCC iter.                  ...        0 min,  0.149 sec
     gradient                   ...        0 min,  0.034 sec
 * total energy  :   -48.5575066 Eh     change       -0.6200402E-04 Eh
   gradient norm :     0.0046369 Eh/α   predicted    -0.6051508E-04 (  -2.40%)
   displ. norm   :     0.0893410 α      lambda       -0.8430254E-04
   maximum displ.:     0.0705305 α      in ANC's #3, #1, #6, ...

........................................................................
.............................. CYCLE   18 ..............................
........................................................................
   1    -49.3039116 -0.493039E+02  0.729E-02    2.05       0.0  T
   2    -49.3039137 -0.216788E-05  0.376E-02    2.05       1.0  T
   3    -49.3039133  0.406424E-06  0.932E-03    2.05       2.0  T
   4    -49.3039141 -0.768635E-06  0.552E-03    2.05       3.4  T
   5    -49.3039143 -0.177383E-06  0.244E-03    2.05       7.8  T
   6    -49.3039144 -0.131886E-06  0.527E-04    2.05      35.9  T
     SCC iter.                  ...        0 min,  0.115 sec
     gradient                   ...        0 min,  0.042 sec
 * total energy  :   -48.5575580 Eh     change       -0.5140804E-04 Eh
   gradient norm :     0.0047770 Eh/α   predicted    -0.4248848E-04 ( -17.35%)
   displ. norm   :     0.1652363 α      lambda       -0.1123997E-03
   maximum displ.:     0.1081982 α      in ANC's #2, #3, #6, ...

........................................................................
.............................. CYCLE   19 ..............................
........................................................................
   1    -49.3040018 -0.493040E+02  0.824E-02    2.05       0.0  T
   2    -49.3040047 -0.291317E-05  0.462E-02    2.05       1.0  T
   3    -49.3040023  0.241482E-05  0.137E-02    2.05       1.4  T
   4    -49.3040057 -0.340447E-05  0.647E-03    2.05       2.9  T
   5    -49.3040058 -0.180012E-06  0.276E-03    2.05       6.8  T
   6    -49.3040060 -0.131971E-06  0.111E-03    2.05      17.1  T
     SCC iter.                  ...        0 min,  0.077 sec
     gradient                   ...        0 min,  0.036 sec
 * total energy  :   -48.5576207 Eh     change       -0.6269008E-04 Eh
   gradient norm :     0.0053867 Eh/α   predicted    -0.5773513E-04 (  -7.90%)
   displ. norm   :     0.1456881 α      lambda       -0.6185038E-04
   maximum displ.:     0.1035661 α      in ANC's #3, #1, #4, ...

........................................................................
.............................. CYCLE   20 ..............................
........................................................................
   1    -49.3031273 -0.493031E+02  0.963E-02    2.05       0.0  T
   2    -49.3031296 -0.235527E-05  0.525E-02    2.05       1.0  T
   3    -49.3031291  0.546161E-06  0.110E-02    2.05       1.7  T
   4    -49.3031299 -0.778529E-06  0.655E-03    2.05       2.9  T
   5    -49.3031304 -0.509260E-06  0.178E-03    2.05      10.6  T
   6    -49.3031304 -0.681031E-07  0.668E-04    2.05      28.3  T
     SCC iter.                  ...        0 min,  0.087 sec
     gradient                   ...        0 min,  0.029 sec
 * total energy  :   -48.5576655 Eh     change       -0.4481233E-04 Eh
   gradient norm :     0.0038241 Eh/α   predicted    -0.3158682E-04 ( -29.51%)
   displ. norm   :     0.2005468 α      lambda       -0.6785871E-04
   maximum displ.:     0.1312741 α      in ANC's #3, #1, #2, ...
 * RMSD in coord.:     0.8140935 α      energy gain  -0.8339451E-02 Eh

generating ANC from model Hessian ...
Using Lindh-Hessian (1995)
 Shifting diagonal of input Hessian by   9.443278281275891E-003
 Lowest  eigenvalues of input Hessian
   -0.000000   -0.000000   -0.000000    0.000000    0.000000    0.000000
    0.010000    0.010748    0.011294    0.012583    0.015996    0.018083
    0.020278    0.021806    0.021990    0.024849    0.025809    0.030987
 Highest eigenvalues
    1.924654    1.990330    2.038216    2.072948    2.261194    2.291167
 

........................................................................
.............................. CYCLE   21 ..............................
........................................................................
   1    -49.3027442 -0.493027E+02  0.134E-01    2.04       0.0  T
   2    -49.3027489 -0.466685E-05  0.712E-02    2.04       1.0  T
   3    -49.3027476  0.125613E-05  0.149E-02    2.05       1.3  T
   4    -49.3027487 -0.107965E-05  0.979E-03    2.04       1.9  T
   5    -49.3027502 -0.147652E-05  0.233E-03    2.04       8.1  T
   6    -49.3027503 -0.117098E-06  0.640E-04    2.04      29.5  T
   7    -49.3027503 -0.329594E-08  0.402E-04    2.04      47.0  T
     SCC iter.                  ...        0 min,  0.083 sec
     gradient                   ...        0 min,  0.028 sec
 * total energy  :   -48.5577120 Eh     change       -0.4654204E-04 Eh
   gradient norm :     0.0023528 Eh/α   predicted     0.0000000E+00 (-100.00%)
   displ. norm   :     0.0320025 α      lambda       -0.2541959E-04
   maximum displ.:     0.0229971 α      in ANC's #1, #3, #5, ...

........................................................................
.............................. CYCLE   22 ..............................
........................................................................
   1    -49.3041894 -0.493042E+02  0.202E-02    2.04       0.0  T
   2    -49.3041896 -0.195630E-06  0.112E-02    2.04       1.7  T
   3    -49.3041896  0.312255E-07  0.277E-03    2.04       6.8  T
   4    -49.3041896 -0.607848E-07  0.155E-03    2.04      12.2  T
   5    -49.3041897 -0.283271E-07  0.621E-04    2.04      30.5  T
   6    -49.3041897 -0.553149E-08  0.288E-04    2.04      65.5  T
     SCC iter.                  ...        0 min,  0.298 sec
     gradient                   ...        0 min,  0.057 sec
 * total energy  :   -48.5577317 Eh     change       -0.1970502E-04 Eh
   gradient norm :     0.0009068 Eh/α   predicted    -0.1271083E-04 ( -35.49%)
   displ. norm   :     0.0962213 α      lambda       -0.2684117E-04
   maximum displ.:     0.0683747 α      in ANC's #1, #3, #5, ...

........................................................................
.............................. CYCLE   23 ..............................
........................................................................
   1    -49.3059969 -0.493060E+02  0.579E-02    2.04       0.0  T
   2    -49.3059980 -0.110595E-05  0.321E-02    2.05       1.0  T
   3    -49.3059980 -0.640821E-07  0.663E-03    2.05       2.8  T
   4    -49.3059981 -0.329458E-07  0.421E-03    2.05       4.5  T
   5    -49.3059984 -0.304215E-06  0.136E-03    2.05      13.9  T
   6    -49.3059984 -0.293647E-07  0.666E-04    2.05      28.4  T
   7    -49.3059984 -0.505937E-08  0.320E-04    2.05      59.1  T
     SCC iter.                  ...        0 min,  0.126 sec
     gradient                   ...        0 min,  0.027 sec
 * total energy  :   -48.5577540 Eh     change       -0.2226818E-04 Eh
   gradient norm :     0.0017129 Eh/α   predicted    -0.1348787E-04 ( -39.43%)
   displ. norm   :     0.0508792 α      lambda       -0.9816637E-05
   maximum displ.:     0.0404049 α      in ANC's #1, #3, #5, ...

........................................................................
.............................. CYCLE   24 ..............................
........................................................................
   1    -49.3052388 -0.493052E+02  0.238E-02    2.05       0.0  T
   2    -49.3052390 -0.118236E-06  0.135E-02    2.05       1.4  T
   3    -49.3052390 -0.253695E-07  0.216E-03    2.04       8.8  T
   4    -49.3052390  0.103399E-08  0.136E-03    2.05      13.9  T
   5    -49.3052390 -0.243095E-07  0.465E-04    2.04      40.6  T
   6    -49.3052390 -0.417752E-08  0.200E-04    2.04      94.3  T
     SCC iter.                  ...        0 min,  0.105 sec
     gradient                   ...        0 min,  0.030 sec
 * total energy  :   -48.5577658 Eh     change       -0.1181061E-04 Eh
   gradient norm :     0.0011335 Eh/α   predicted    -0.4915087E-05 ( -58.38%)
   displ. norm   :     0.0657883 α      lambda       -0.1157690E-04
   maximum displ.:     0.0517042 α      in ANC's #1, #3, #5, ...

........................................................................
.............................. CYCLE   25 ..............................
........................................................................
   1    -49.3041194 -0.493041E+02  0.314E-02    2.04       0.0  T
   2    -49.3041196 -0.253602E-06  0.173E-02    2.04       1.1  T
   3    -49.3041196  0.112873E-07  0.321E-03    2.04       5.9  T
   4    -49.3041197 -0.501182E-07  0.183E-03    2.04      10.4  T
   5    -49.3041197 -0.341523E-07  0.559E-04    2.04      33.8  T
   6    -49.3041197 -0.580234E-08  0.241E-04    2.04      78.4  T
     SCC iter.                  ...        0 min,  0.112 sec
     gradient                   ...        0 min,  0.037 sec
 * total energy  :   -48.5577776 Eh     change       -0.1180332E-04 Eh
   gradient norm :     0.0007401 Eh/α   predicted    -0.5801050E-05 ( -50.85%)
   displ. norm   :     0.0571695 α      lambda       -0.7386293E-05
   maximum displ.:     0.0471608 α      in ANC's #1, #3, #5, ...

........................................................................
.............................. CYCLE   26 ..............................
........................................................................
   1    -49.3038668 -0.493039E+02  0.237E-02    2.04       0.0  T
   2    -49.3038669 -0.107923E-06  0.135E-02    2.04       1.4  T
   3    -49.3038669  0.586640E-07  0.235E-03    2.04       8.1  T
   4    -49.3038669 -0.745443E-07  0.123E-03    2.04      15.4  T
   5    -49.3038670 -0.177634E-07  0.458E-04    2.04      41.3  T
   6    -49.3038670 -0.391330E-08  0.198E-04    2.04      95.3  T
     SCC iter.                  ...        0 min,  0.104 sec
     gradient                   ...        0 min,  0.037 sec
 * total energy  :   -48.5577866 Eh     change       -0.8960679E-05 Eh
   gradient norm :     0.0008931 Eh/α   predicted    -0.3698821E-05 ( -58.72%)
   displ. norm   :     0.0512189 α      lambda       -0.6334325E-05
   maximum displ.:     0.0425752 α      in ANC's #1, #2, #6, ...

........................................................................
.............................. CYCLE   27 ..............................
........................................................................
   1    -49.3040924 -0.493041E+02  0.217E-02    2.04       0.0  T
   2    -49.3040925 -0.702598E-07  0.124E-02    2.04       1.5  T
   3    -49.3040925  0.140042E-07  0.191E-03    2.04       9.9  T
   4    -49.3040925 -0.138573E-07  0.128E-03    2.04      14.8  T
   5    -49.3040925 -0.280157E-07  0.330E-04    2.04      57.2  T
   6    -49.3040925 -0.223474E-08  0.144E-04    2.04     130.9  T
     SCC iter.                  ...        0 min,  0.109 sec
     gradient                   ...        0 min,  0.030 sec
 * total energy  :   -48.5577953 Eh     change       -0.8703041E-05 Eh
   gradient norm :     0.0007813 Eh/α   predicted    -0.3171078E-05 ( -63.56%)
   displ. norm   :     0.0695567 α      lambda       -0.8815977E-05
   maximum displ.:     0.0563465 α      in ANC's #1, #2, #6, ...

........................................................................
.............................. CYCLE   28 ..............................
........................................................................
   1    -49.3045701 -0.493046E+02  0.332E-02    2.04       0.0  T
   2    -49.3045703 -0.204661E-06  0.185E-02    2.04       1.0  T
   3    -49.3045703 -0.132603E-07  0.304E-03    2.04       6.2  T
   4    -49.3045703  0.596382E-07  0.237E-03    2.04       8.0  T
   5    -49.3045704 -0.118998E-06  0.349E-04    2.04      54.1  T
   6    -49.3045704 -0.163809E-08  0.190E-04    2.04      99.5  T
     SCC iter.                  ...        0 min,  0.120 sec
     gradient                   ...        0 min,  0.036 sec
 * total energy  :   -48.5578072 Eh     change       -0.1197215E-04 Eh
   gradient norm :     0.0005166 Eh/α   predicted    -0.4417748E-05 ( -63.10%)
   displ. norm   :     0.1018697 α      lambda       -0.1158912E-04
   maximum displ.:     0.0807394 α      in ANC's #1, #2, #6, ...

........................................................................
.............................. CYCLE   29 ..............................
........................................................................
   1    -49.3048270 -0.493048E+02  0.468E-02    2.04       0.0  T
   2    -49.3048273 -0.334871E-06  0.263E-02    2.04       1.0  T
   3    -49.3048273 -0.522748E-07  0.373E-03    2.04       5.1  T
   4    -49.3048273  0.951182E-07  0.269E-03    2.04       7.0  T
   5    -49.3048274 -0.158298E-06  0.505E-04    2.04      37.4  T
   6    -49.3048274 -0.433651E-08  0.245E-04    2.04      77.2  T
     SCC iter.                  ...        0 min,  0.100 sec
     gradient                   ...        0 min,  0.049 sec
 * total energy  :   -48.5578230 Eh     change       -0.1571278E-04 Eh
   gradient norm :     0.0005148 Eh/α   predicted    -0.5821460E-05 ( -62.95%)
   displ. norm   :     0.1310089 α      lambda       -0.1335279E-04
   maximum displ.:     0.1023371 α      in ANC's #1, #2, #6, ...

........................................................................
.............................. CYCLE   30 ..............................
........................................................................
   1    -49.3048276 -0.493048E+02  0.626E-02    2.04       0.0  T
   2    -49.3048282 -0.665683E-06  0.348E-02    2.04       1.0  T
   3    -49.3048284 -0.104657E-06  0.513E-03    2.04       3.7  T
   4    -49.3048282  0.189460E-06  0.349E-03    2.04       5.4  T
   5    -49.3048284 -0.281416E-06  0.605E-04    2.04      31.2  T
   6    -49.3048285 -0.684184E-08  0.281E-04    2.04      67.2  T
     SCC iter.                  ...        0 min,  0.104 sec
     gradient                   ...        0 min,  0.043 sec
 * total energy  :   -48.5578411 Eh     change       -0.1810633E-04 Eh
   gradient norm :     0.0006369 Eh/α   predicted    -0.6735755E-05 ( -62.80%)
   displ. norm   :     0.1472384 α      lambda       -0.1385317E-04
   maximum displ.:     0.1152624 α      in ANC's #1, #2, #6, ...

........................................................................
.............................. CYCLE   31 ..............................
........................................................................
   1    -49.3045553 -0.493046E+02  0.692E-02    2.04       0.0  T
   2    -49.3045560 -0.724080E-06  0.386E-02    2.04       1.0  T
   3    -49.3045561 -0.144809E-06  0.524E-03    2.04       3.6  T
   4    -49.3045560  0.142417E-06  0.280E-03    2.04       6.8  T
   5    -49.3045562 -0.200496E-06  0.505E-04    2.04      37.4  T
   6    -49.3045562 -0.450240E-08  0.244E-04    2.04      77.4  T
     SCC iter.                  ...        0 min,  0.110 sec
     gradient                   ...        0 min,  0.032 sec
 * total energy  :   -48.5578593 Eh     change       -0.1821642E-04 Eh
   gradient norm :     0.0007182 Eh/α   predicted    -0.6994963E-05 ( -61.60%)
   displ. norm   :     0.1480265 α      lambda       -0.1268870E-04
   maximum displ.:     0.1177543 α      in ANC's #1, #2, #4, ...

........................................................................
.............................. CYCLE   32 ..............................
........................................................................
   1    -49.3042368 -0.493042E+02  0.678E-02    2.04       0.0  T
   2    -49.3042374 -0.639323E-06  0.379E-02    2.04       1.0  T
   3    -49.3042375 -0.124198E-06  0.495E-03    2.04       3.8  T
   4    -49.3042374  0.133403E-06  0.258E-03    2.04       7.3  T
   5    -49.3042376 -0.188810E-06  0.336E-04    2.04      56.3  T
   6    -49.3042376 -0.167344E-08  0.181E-04    2.04     104.4  T
     SCC iter.                  ...        0 min,  0.111 sec
     gradient                   ...        0 min,  0.027 sec
 * total energy  :   -48.5578751 Eh     change       -0.1585751E-04 Eh
   gradient norm :     0.0008108 Eh/α   predicted    -0.6406390E-05 ( -59.60%)
   displ. norm   :     0.1382039 α      lambda       -0.1038659E-04
   maximum displ.:     0.1125713 α      in ANC's #1, #2, #4, ...

........................................................................
.............................. CYCLE   33 ..............................
........................................................................
   1    -49.3041427 -0.493041E+02  0.647E-02    2.04       0.0  T
   2    -49.3041434 -0.643304E-06  0.360E-02    2.04       1.0  T
   3    -49.3041435 -0.127802E-06  0.494E-03    2.04       3.8  T
   4    -49.3041434  0.152941E-06  0.274E-03    2.04       6.9  T
   5    -49.3041436 -0.203373E-06  0.371E-04    2.04      50.9  T
   6    -49.3041436 -0.197826E-08  0.209E-04    2.04      90.2  T
     SCC iter.                  ...        0 min,  0.098 sec
     gradient                   ...        0 min,  0.037 sec
 * total energy  :   -48.5578879 Eh     change       -0.1277385E-04 Eh
   gradient norm :     0.0007820 Eh/α   predicted    -0.5237905E-05 ( -59.00%)
   displ. norm   :     0.1298641 α      lambda       -0.8296192E-05
   maximum displ.:     0.1090600 α      in ANC's #1, #4, #6, ...

........................................................................
.............................. CYCLE   34 ..............................
........................................................................
   1    -49.3041616 -0.493042E+02  0.575E-02    2.04       0.0  T
   2    -49.3041620 -0.430915E-06  0.324E-02    2.04       1.0  T
   3    -49.3041621 -0.763776E-07  0.418E-03    2.04       4.5  T
   4    -49.3041619  0.153449E-06  0.285E-03    2.04       6.6  T
   5    -49.3041622 -0.208359E-06  0.320E-04    2.04      59.1  T
   6    -49.3041622 -0.130800E-08  0.191E-04    2.04      98.9  T
     SCC iter.                  ...        0 min,  0.304 sec
     gradient                   ...        0 min,  0.117 sec
 * total energy  :   -48.5578983 Eh     change       -0.1037879E-04 Eh
   gradient norm :     0.0006328 Eh/α   predicted    -0.4179824E-05 ( -59.73%)
   displ. norm   :     0.1344799 α      lambda       -0.7146702E-05
   maximum displ.:     0.1145044 α      in ANC's #1, #6, #4, ...

........................................................................
.............................. CYCLE   35 ..............................
........................................................................
   1    -49.3042213 -0.493042E+02  0.590E-02    2.04       0.0  T
   2    -49.3042218 -0.481828E-06  0.332E-02    2.04       1.0  T
   3    -49.3042219 -0.136270E-06  0.416E-03    2.04       4.5  T
   4    -49.3042219  0.199364E-07  0.112E-03    2.04      16.9  T
   5    -49.3042219 -0.329348E-07  0.302E-04    2.04      62.6  T
   6    -49.3042219 -0.743938E-11  0.192E-04    2.04      98.3  T
     SCC iter.                  ...        0 min,  0.075 sec
     gradient                   ...        0 min,  0.033 sec
 * total energy  :   -48.5579071 Eh     change       -0.8802979E-05 Eh
   gradient norm :     0.0006393 Eh/α   predicted    -0.3602514E-05 ( -59.08%)
   displ. norm   :     0.1525157 α      lambda       -0.7515686E-05
   maximum displ.:     0.1344951 α      in ANC's #1, #6, #5, ...

........................................................................
.............................. CYCLE   36 ..............................
........................................................................
   1    -49.3045239 -0.493045E+02  0.663E-02    2.04       0.0  T
   2    -49.3045246 -0.671336E-06  0.371E-02    2.04       1.0  T
   3    -49.3045247 -0.176589E-06  0.493E-03    2.04       3.8  T
   4    -49.3045246  0.124207E-06  0.238E-03    2.04       7.9  T
   5    -49.3045248 -0.157397E-06  0.423E-04    2.04      44.7  T
   6    -49.3045248 -0.129214E-08  0.260E-04    2.04      72.8  T
     SCC iter.                  ...        0 min,  0.130 sec
     gradient                   ...        0 min,  0.032 sec
 * total energy  :   -48.5579153 Eh     change       -0.8171403E-05 Eh
   gradient norm :     0.0003926 Eh/α   predicted    -0.3798360E-05 ( -53.52%)
   displ. norm   :     0.1727425 α      lambda       -0.5425181E-05
   maximum displ.:     0.1485979 α      in ANC's #1, #6, #5, ...

........................................................................
.............................. CYCLE   37 ..............................
........................................................................
   1    -49.3040847 -0.493041E+02  0.749E-02    2.04       0.0  T
   2    -49.3040856 -0.859232E-06  0.421E-02    2.04       1.0  T
   3    -49.3040858 -0.202940E-06  0.553E-03    2.04       3.4  T
   4    -49.3040856  0.206832E-06  0.326E-03    2.04       5.8  T
   5    -49.3040858 -0.265928E-06  0.564E-04    2.04      33.5  T
   6    -49.3040858 -0.421516E-08  0.277E-04    2.04      68.2  T
     SCC iter.                  ...        0 min,  0.112 sec
     gradient                   ...        0 min,  0.029 sec
 * total energy  :   -48.5579184 Eh     change       -0.3186689E-05 Eh
   gradient norm :     0.0013049 Eh/α   predicted    -0.2750233E-05 ( -13.70%)
   displ. norm   :     0.0441417 α      lambda       -0.3969534E-05
   maximum displ.:     0.0403421 α      in ANC's #1, #6, #3, ...

........................................................................
.............................. CYCLE   38 ..............................
........................................................................
   1    -49.3046186 -0.493046E+02  0.203E-02    2.04       0.0  T
   2    -49.3046187 -0.122260E-06  0.110E-02    2.04       1.7  T
   3    -49.3046187 -0.114062E-07  0.194E-03    2.04       9.7  T
   4    -49.3046187  0.966834E-08  0.126E-03    2.04      15.0  T
   5    -49.3046188 -0.260875E-07  0.392E-04    2.04      48.2  T
   6    -49.3046188 -0.271186E-08  0.130E-04    2.04     145.4  T
     SCC iter.                  ...        0 min,  0.086 sec
     gradient                   ...        0 min,  0.033 sec
 * total energy  :   -48.5579217 Eh     change       -0.3287969E-05 Eh
   gradient norm :     0.0004011 Eh/α   predicted    -0.1987977E-05 ( -39.54%)
   displ. norm   :     0.0595499 α      lambda       -0.1217015E-05
   maximum displ.:     0.0528934 α      in ANC's #1, #6, #3, ...

   *** GEOMETRY OPTIMIZATION CONVERGED AFTER 38 ITERATIONS ***

------------------------------------------------------------------------
 total energy gain :          -0.0085957 Eh       -5.3939 kcal/mol
 total RMSD        :           1.0246914 α         0.5422 Å
------------------------------------------------------------------------

 ANCopt (total)                0 d,  0 h,  0 min,  7.818 sec
 optimizer setup                ...        0 min,  0.002 sec (  0.019%)
 model hessian                  ...        0 min,  0.094 sec (  1.206%)
 ANC generation                 ...        0 min,  0.016 sec (  0.207%)
 coordinate transformation      ...        0 min,  0.066 sec (  0.849%)
 single point calculation       ...        0 min,  7.537 sec ( 96.400%)
 optimization log               ...        0 min,  0.008 sec (  0.103%)
 hessian update                 ...        0 min,  0.002 sec (  0.029%)
 rational function              ...        0 min,  0.085 sec (  1.087%)

================
 final structure:
================
$coord
   11.19701101259401   -0.71460464687330    0.13514757948915      C 
    8.40256433668524   -0.52078530496602   -0.02692516237360      C 
    6.94128913805918   -0.35287277089098   -2.16021651000763      C 
    4.35142223886240   -0.19862536419417   -1.66736330707030      C 
    3.78435234596494   -0.25013375732289    0.87802807799297      C 
    1.46818403475946   -0.15060318916578    2.19756963194744      C 
   -0.95727586042470    0.02984760896897    1.35839309787252      C 
   -3.03462328931102    0.08641480239662    3.23827388530168      C 
   -2.81584391836768   -0.01161095965935    5.51546900726386      O 
   -5.40682725373861    0.28218557225426    1.76752061858016      C 
   -7.88160671217409    0.40215743384365    2.59530771552764      C 
   -9.78114930615226    0.57880082555056    0.79289298067424      C 
   -9.21283344577828    0.63247300696343   -1.76780541919295      C 
   -6.72807045185934    0.51418610379040   -2.60343451838411      C 
   -4.83315948381533    0.33913418520154   -0.81318536150429      C 
   -2.05626051473147    0.18945572639062   -1.19350937072159      C 
   -0.99455451765317    0.20641732606507   -3.22833860598939      O 
    6.56940072563341   -0.49216293966146    2.66278209900400      S 
   12.02109330956152   -0.65434794409042   -1.74585251204404      H 
   11.96874437879183    0.83290658744023    1.25338343411296      H 
   11.74777678715019   -2.47704428630434    1.04758018337563      H 
    7.73051605137100   -0.34056738664980   -4.03377120205344      H 
    2.91624734182973   -0.05546975607618   -3.09752886701329      H 
    1.63540525579541   -0.23405900102953    4.24498446865239      H 
   -8.30451614779426    0.35756281778954    4.58995778665168      H 
  -11.73059786834794    0.67568058403965    1.38962413614991      H 
  -10.72815948674467    0.77048979339962   -3.12863360741362      H 
   -6.26833972757027    0.55498596019412   -4.59021780529201      H 
$end
 
 Bond Distances (Angstroems)
 ---------------------------
C1-C2=1.4848         C1-H19=1.0872        C1-H20=1.0897        C1-H21=1.0899        C2-C1=1.4848         C2-C3=1.3712         
C2-S18=1.7225        C3-C2=1.3712         C3-C4=1.3975         C3-H22=1.0758        C4-C3=1.3975         C4-C5=1.3803         
C4-H23=1.0748        C5-C4=1.3803         C5-C6=1.4116         C5-S18=1.7551        C6-C5=1.4116         C6-C7=1.3615         
C6-H24=1.0879        C7-C6=1.3615         C7-C8=1.4829         C7-C16=1.4727        C8-C7=1.4829         C8-O9=1.2117         
C8-C10=1.4806        O9-C8=1.2117         C10-C8=1.4806        C10-C11=1.3824       C10-C15=1.3993       C11-C10=1.3824       
C11-C12=1.3888       C11-H25=1.0792       C12-C11=1.3888       C12-C13=1.3883       C12-H26=1.0801       C13-C12=1.3883       
C13-C14=1.3887       C13-H27=1.0802       C14-C13=1.3887       C14-C15=1.3826       C14-H28=1.0794       C15-C10=1.3993       
C15-C14=1.3826       C15-C16=1.4853       C16-C7=1.4727        C16-C15=1.4853       C16-O17=1.2146       O17-C16=1.2146       
S18-C2=1.7225        S18-C5=1.7551        H19-C1=1.0872        H20-C1=1.0897        H21-C1=1.0899        H22-C3=1.0758        
H23-C4=1.0748        H24-C6=1.0879        H25-C11=1.0792       H26-C12=1.0801       H27-C13=1.0802       H28-C14=1.0794       
 C  H  Rav=1.0824 sigma=0.0054  Rmin=1.0748  Rmax=1.0899    10
 C  C  Rav=1.4162 sigma=0.0453  Rmin=1.3615  Rmax=1.4853    16
 O  C  Rav=1.2131 sigma=0.0014  Rmin=1.2117  Rmax=1.2146     2
 S  C  Rav=1.7388 sigma=0.0163  Rmin=1.7225  Rmax=1.7551     2
 
 selected bond angles (degree)
 --------------------
H19-C1-C2=110.16               H20-C1-C2=110.65               H20-C1-H19=108.95              H21-C1-C2=110.55               
H21-C1-H19=108.87              H21-C1-H20=107.59              C3-C2-C1=127.86                S18-C2-C1=120.91               
S18-C2-C3=111.23               C4-C3-C2=113.78                H22-C3-C2=122.69               H22-C3-C4=123.53               
C5-C4-C3=113.22                H23-C4-C3=124.45               H23-C4-C5=122.34               C6-C5-C4=132.13                
S18-C5-C4=110.12               S18-C5-C6=117.75               C7-C6-C5=131.29                H24-C6-C5=114.87               
H24-C6-C7=113.85               C8-C7-C6=118.78                C16-C7-C6=132.48               C16-C7-C8=108.74               
O9-C8-C7=126.55                C10-C8-C7=106.10               C10-C8-O9=127.36               C11-C10-C8=129.78              
C15-C10-C8=109.30              C15-C10-C11=120.92             
 
 selected dihedral angles (degree)
 ---------------------------------
C3-C2-C1-H19=  1.62           C3-C2-C1-H20=122.16           C3-C2-C1-H21=241.25           S18-C2-C1-H19=181.46          
S18-C2-C1-H20=302.00          S18-C2-C1-H21= 61.10          C4-C3-C2-C1=179.89            C4-C3-C2-S18=  0.04           
H22-C3-C2-C1=359.84           H22-C3-C2-S18=179.99          C5-C4-C3-C2=359.92            C5-C4-C3-H22=179.97           
H23-C4-C3-C2=179.98           H23-C4-C3-H22=  0.03          C6-C5-C4-C3=180.22            C6-C5-C4-H23=  0.16           
S18-C5-C4-C3=  0.09           S18-C5-C4-H23=180.02          C7-C6-C5-C4=  0.00            C7-C6-C5-S18=180.13           
H24-C6-C5-C4=179.90           H24-C6-C5-S18=  0.05          C8-C7-C6-C5=179.80            C8-C7-C6-H24=359.88           
C16-C7-C6-C5=359.91           C16-C7-C6-H24=179.99          O9-C8-C7-C6=  0.04            O9-C8-C7-C16=179.95           
C10-C8-C7-C6=180.11           C10-C8-C7-C16=  0.02          C11-C10-C8-C7=180.04          C11-C10-C8-O9=  0.11          
C15-C10-C8-C7=  0.05          C15-C10-C8-O9=180.12          

========================================================================
 FINAL SINGLEPOINT CALCULATION ON OPTIMIZED GEOMETRY
========================================================================

          ...................................................
          :                      SETUP                      :
          :.................................................:
          :  # basis functions                  88          :
          :  # atomic orbitals                  87          :
          :  # shells                           47          :
          :  # electrons                        88          :
          :  max. iterations                    50          :
          :  Hamiltonian                  GFN2-xTB          :
          :  restarted?                      false          :
          :  GBSA solvation                  false          :
          :  PC potential                    false          :
          :  electronic temp.          300.0000000     K    :
          :  accuracy                    1.0000000          :
          :  -> integral cutoff          0.2500000E+02      :
          :  -> integral neglect         0.1000000E-07      :
          :  -> SCF convergence          0.1000000E-05 Eh   :
          :  -> wf. convergence          0.1000000E-03 e    :
          :  Broyden damping             0.4000000          :
          ...................................................

 iter      E             dE          RMSdq      gap      omega  full diag
   1    -49.3046188 -0.493046E+02  0.594E-05    2.04       0.0  T
   2    -49.3046188 -0.327560E-11  0.268E-05    2.04     705.6  T
   3    -49.3046188 -0.321165E-11  0.302E-05    2.04     626.8  T

   *** convergence criteria satisfied after 3 iterations ***

         #    Occupation            Energy/Eh            Energy/eV
      -------------------------------------------------------------
         1        2.0000           -0.7418324             -20.1863
       ...           ...                  ...                  ...
        38        2.0000           -0.4432268             -12.0608
        39        2.0000           -0.4269743             -11.6186
        40        2.0000           -0.4267115             -11.6114
        41        2.0000           -0.4081566             -11.1065
        42        2.0000           -0.4020195             -10.9395
        43        2.0000           -0.3902011             -10.6179
        44        2.0000           -0.3865071             -10.5174 (HOMO)
        45                         -0.3114966              -8.4763 (LUMO)
        46                         -0.2995885              -8.1522
        47                         -0.2531299              -6.8880
        48                         -0.2249830              -6.1221
        49                         -0.2155769              -5.8661
       ...                                ...                  ...
        87                          0.7541891              20.5225
      -------------------------------------------------------------
                  HL-Gap            0.0750104 Eh            2.0411 eV
             Fermi-level           -0.3490019 Eh           -9.4968 eV

 SCC (total)                   0 d,  0 h,  0 min,  0.115 sec
 SCC setup                      ...        0 min,  0.000 sec (  0.430%)
 Dispersion                     ...        0 min,  0.000 sec (  0.319%)
 integral evaluation            ...        0 min,  0.017 sec ( 15.079%)
 zeroth order Hamiltonian       ...        0 min,  0.000 sec (  0.186%)
 iterations                     ...        0 min,  0.046 sec ( 40.099%)
 molecular gradient             ...        0 min,  0.049 sec ( 42.522%)
 printout                       ...        0 min,  0.001 sec (  1.303%)

         :::::::::::::::::::::::::::::::::::::::::::::::::::::
         ::                     SUMMARY                     ::
         :::::::::::::::::::::::::::::::::::::::::::::::::::::
         :: total energy              -48.557921754394 Eh   ::
         :: gradient norm               0.000401450528 Eh/α ::
         :: HOMO-LUMO gap               2.041138068556 eV   ::
         ::.................................................::
         :: SCC energy                -49.304618769369 Eh   ::
         :: -> isotropic ES             0.053032011990 Eh   ::
         :: -> anisotropic ES          -0.001221188000 Eh   ::
         :: -> anisotropic XC           0.019482933506 Eh   ::
         :: -> dispersion              -0.031326654215 Eh   ::
         :: repulsion energy            0.746997895356 Eh   ::
         :: add. restraining            0.000000000000 Eh   ::
         :::::::::::::::::::::::::::::::::::::::::::::::::::::

           -------------------------------------------------
          |                Property Printout                |
           -------------------------------------------------

    * Orbital Energies and Occupations

         #    Occupation            Energy/Eh            Energy/eV
      -------------------------------------------------------------
         1        2.0000           -0.7418324             -20.1863
       ...           ...                  ...                  ...
        32        2.0000           -0.4801377             -13.0652
        33        2.0000           -0.4671940             -12.7130
        34        2.0000           -0.4609533             -12.5432
        35        2.0000           -0.4592837             -12.4977
        36        2.0000           -0.4517653             -12.2932
        37        2.0000           -0.4464563             -12.1487
        38        2.0000           -0.4432268             -12.0608
        39        2.0000           -0.4269743             -11.6186
        40        2.0000           -0.4267115             -11.6114
        41        2.0000           -0.4081566             -11.1065
        42        2.0000           -0.4020195             -10.9395
        43        2.0000           -0.3902011             -10.6179
        44        2.0000           -0.3865071             -10.5174 (HOMO)
        45                         -0.3114966              -8.4763 (LUMO)
        46                         -0.2995885              -8.1522
        47                         -0.2531299              -6.8880
        48                         -0.2249830              -6.1221
        49                         -0.2155769              -5.8661
        50                         -0.2034490              -5.5361
        51                         -0.1729760              -4.7069
        52                         -0.1316560              -3.5825
        53                         -0.1172360              -3.1902
        54                         -0.0898324              -2.4445
        55                         -0.0171302              -0.4661
       ...                                ...                  ...
        87                          0.7541891              20.5225
      -------------------------------------------------------------
                  HL-Gap            0.0750104 Eh            2.0411 eV
             Fermi-level           -0.3490019 Eh           -9.4968 eV

   #   Z        covCN         q      C6AA      α(0)
   1   6 C      3.778    -0.112    22.658     6.781
   2   6 C      2.981     0.039    27.120     8.542
   3   6 C      3.111    -0.052    29.123     8.841
   4   6 C      3.091    -0.039    28.857     8.805
   5   6 C      2.985     0.026    27.427     8.591
   6   6 C      2.949     0.001    28.009     8.680
   7   6 C      2.994    -0.065    29.596     8.924
   8   6 C      2.868     0.223    23.316     7.915
   9   8 O      0.856    -0.367    21.031     6.149
  10   6 C      3.024    -0.016    28.375     8.738
  11   6 C      2.913    -0.015    28.376     8.735
  12   6 C      2.922    -0.021    28.535     8.760
  13   6 C      2.922    -0.021    28.539     8.761
  14   6 C      2.913    -0.015    28.377     8.735
  15   6 C      3.034    -0.016    28.370     8.737
  16   6 C      2.855     0.227    23.237     7.901
  17   8 O      0.856    -0.376    21.204     6.174
  18  16 S      2.364    -0.018   141.803    20.042
  19   1 H      0.925     0.058     2.227     2.334
  20   1 H      0.925     0.064     2.156     2.296
  21   1 H      0.925     0.064     2.154     2.295
  22   1 H      0.926     0.046     2.365     2.405
  23   1 H      0.926     0.095     1.834     2.117
  24   1 H      0.925     0.078     1.998     2.210
  25   1 H      0.926     0.059     2.212     2.326
  26   1 H      0.926     0.047     2.360     2.402
  27   1 H      0.926     0.046     2.364     2.404
  28   1 H      0.926     0.058     2.217     2.328

 Mol. C6AA /au·bohr⁶  :      13002.585471
 Mol. C8AA /au·bohr⁸  :     355683.387249
 Mol. α(0) /au        :        182.928610


Wiberg/Mayer (AO) data.
largest (>0.10) Wiberg bond orders for each atom
          total WBO             WBO to atom ...
     1  C   3.992        C    2 1.045    H   19 0.979    H   20 0.966    H   21 0.964
     2  C   3.938        C    3 1.517    S   18 1.210    C    1 1.045
     3  C   3.982        C    2 1.517    C    4 1.350    H   22 0.963
     4  C   3.967        C    5 1.444    C    3 1.350    H   23 0.943
     5  C   3.946        C    4 1.444    C    6 1.243    S   18 1.093
     6  C   3.971        C    7 1.579    C    5 1.243    H   24 0.952
     7  C   3.978        C    6 1.579    C   16 1.055    C    8 1.034
     8  C   3.932        O    9 1.779    C    7 1.034    C   10 1.011
     9  O   2.053        C    8 1.779
    10  C   3.982        C   11 1.418    C   15 1.317    C    8 1.011
    11  C   3.986        C   12 1.426    C   10 1.418    H   25 0.967
    12  C   3.983        C   13 1.440    C   11 1.426    H   26 0.970
    13  C   3.984        C   12 1.440    C   14 1.426    H   27 0.970
    14  C   3.986        C   13 1.426    C   15 1.418    H   28 0.967
    15  C   3.985        C   14 1.418    C   10 1.317    C   16 1.009
    16  C   3.933        O   17 1.757    C    7 1.055    C   15 1.009
    17  O   2.069        C   16 1.757
    18  S   2.609        C    2 1.210    C    5 1.093
    19  H   0.996        C    1 0.979
    20  H   0.992        C    1 0.966
    21  H   0.992        C    1 0.964
    22  H   0.997        C    3 0.963
    23  H   0.991        C    4 0.943
    24  H   0.993        C    6 0.952
    25  H   0.996        C   11 0.967
    26  H   0.997        C   12 0.970
    27  H   0.997        C   13 0.970
    28  H   0.996        C   14 0.967

molecular dipole:
                 x           y           z       tot (Debye)
 q only:        0.696      -0.035      -0.486
   full:        0.525      -0.019      -0.700       2.224
molecular quadrupole (traceless):
                xx          xy          yy          xz          yz          zz
 q only:       29.988      -2.628      -9.483       3.820       0.184     -20.504
  q+dip:       34.051      -3.079     -13.269       2.404       0.159     -20.781
   full:       31.411      -2.541      -7.215       2.188       0.511     -24.197

           -------------------------------------------------
          |                Geometry Summary                 |
           -------------------------------------------------

      molecular mass/u    :      254.3028000
   center of mass at/Å    :       -0.0091333      -0.0058732       0.3135018
  moments of inertia/u·Å² :        0.4137810E+03   0.2816086E+04   0.3226735E+04
rotational constants/cm⁻¹ :        0.4074047E-01   0.5986192E-02   0.5224362E-02

 * 30 selected distances

     #   Z        #   Z                                     value/Å
     1   6 C      2   6 C                                 1.4847893
     2   6 C      3   6 C                                 1.3712178
     3   6 C      4   6 C                                 1.3974796
     4   6 C      5   6 C                                 1.3802540
     5   6 C      6   6 C                                 1.4115978
     6   6 C      7   6 C                                 1.3615018
     7   6 C      8   6 C                                 1.4828793
     8   6 C      9   8 O                                 1.2116993
     8   6 C     10   6 C                                 1.4806369
    10   6 C     11   6 C                                 1.3823745
    11   6 C     12   6 C                                 1.3888422
    12   6 C     13   6 C                                 1.3883256
    13   6 C     14   6 C                                 1.3886558
    10   6 C     15   6 C                                 1.3993093
    14   6 C     15   6 C                                 1.3825937
     7   6 C     16   6 C                                 1.4727345
    15   6 C     16   6 C                                 1.4853034
    16   6 C     17   8 O                                 1.2145785
     2   6 C     18  16 S                                 1.7225377
     5   6 C     18  16 S                                 1.7551159 (max)
     1   6 C     19   1 H                                 1.0871861
     1   6 C     20   1 H                                 1.0897474
     1   6 C     21   1 H                                 1.0899086
     3   6 C     22   1 H                                 1.0758367
     4   6 C     23   1 H                                 1.0748415 (min)
     6   6 C     24   1 H                                 1.0879498
    11   6 C     25   1 H                                 1.0792453
    12   6 C     26   1 H                                 1.0800693
    13   6 C     27   1 H                                 1.0802367
    14   6 C     28   1 H                                 1.0793562

 * 4 distinct bonds (by element types)

   Z      Z             #   av. dist./Å        max./Å        min./Å
   1 H    6 C          10     1.0824377     1.0899086     1.0748415
   6 C    6 C          16     1.4161560     1.4853034     1.3615018
   6 C    8 O           2     1.2131389     1.2145785     1.2116993
   6 C   16 S           2     1.7388268     1.7551159     1.7225377


optimized geometry written to: xtbopt.sdf


           -------------------------------------------------
          | TOTAL ENERGY              -48.557921754394 Eh   |
          | GRADIENT NORM               0.000401450528 Eh/α |
          | HOMO-LUMO GAP               2.041138068556 eV   |
           -------------------------------------------------

------------------------------------------------------------------------
 * finished run on 2020/02/02 at 20:20:13.162     
------------------------------------------------------------------------
 total:
 * wall-time:     0 d,  0 h,  0 min,  8.356 sec
 *  cpu-time:     0 d,  0 h,  0 min, 55.896 sec
 * ratio c/w:     6.690 speedup
 SCF:
 * wall-time:     0 d,  0 h,  0 min,  0.301 sec
 *  cpu-time:     0 d,  0 h,  0 min,  2.014 sec
 * ratio c/w:     6.681 speedup
 ANC optimizer:
 * wall-time:     0 d,  0 h,  0 min,  7.937 sec
 *  cpu-time:     0 d,  0 h,  0 min, 53.331 sec
 * ratio c/w:     6.719 speedup

normal termination of xtb
