      -----------------------------------------------------------      
     |                   =====================                   |     
     |                           x T B                           |     
     |                   =====================                   |     
     |                         S. Grimme                         |     
     |          Mulliken Center for Theoretical Chemistry        |     
     |                    University of Bonn                     |     
     |                  Version 6.1 (SAW190416)                  |     
      -----------------------------------------------------------      

   This program is distributed in the hope that it will be useful,
   but WITHOUT ANY WARRANTY; without even the implied warranty of
   MERCHANTABILITY or FITNESS FOR A PARTICULAR PURPOSE.
   
   FOR NON-COMMERCIAL, ACADEMIA USE ONLY.
   
   Cite this work as:
   S. Grimme, C. Bannwarth, P. Shushkov, J. Comput. Theory Chem., 2017,
   13, 1989-2009. DOI: 10.1021/acs.jctc.7b00118
   C. Bannwarth, S. Ehlert and S. Grimme., J. Comput. Theory Chem., 2019,
   just accepted. DOI: 10.1021/acs.jctc.8b01176
   
   for sTDA-xTB:
   S. Grimme and C. Bannwarth, J. Chem. Phys., 2016, 145, 054103.
   DOI: 10.1063/1.4959605
   
   in the mass-spec context:
   V. Asgeirsson, C. Bauer and S. Grimme, Chem. Sci., 2017, 8, 4879.
   DOI: 10.1039/c7sc00601b
   
   for metadynamics refer to:
   S. Grimme, J. Chem. Theory Comput. Article ASAP, 2019,
   DOI: 10.1021/acs.jctc.9b00143
   
   with help from (in alphabetical order)
   C. Bannwarth, F. Bohle, G. Brandenburg, E. Caldeweyher, M. Checinski,
   S. Dohm, S. Ehlert, S. Ehrlich, F. März, H. Neugebauer, J. Pisarek,
   P. Pracht, P. Shushkov, and S. Spicher.
   
 * started run on 2020/02/02 at 20:20:13.229     

           -------------------------------------------------
          |                Calculation Setup                |
           -------------------------------------------------

          program call               : /data/yanfei/software/xtb_exe/bin/xtb CHEMBL231079.sdf -opt
          coordinate file            : CHEMBL231079.sdf
          omp threads                :                    32
          number of atoms            :                    62
          number of electrons        :                   176
          charge                     :                     0
          spin                       :                   0.0
          first test random number   :      0.18157582750262


########################################################################
# WARNING! Please study the warnings concerning your input carefully
#  - XTBHOME is not set, using HOME instead
#  - XTBPATH is not set, using XTBHOME instead
#  - the use of '-opt' is discouraged, please use '--opt' next time
########################################################################

           ------------------------------------------------- 
          |                 G F N 2 - x T B                 |
          | Geometry, Frequencies, Noncovalent interactions |
          |            JCTC 2018 parametrisation            |
           ------------------------------------------------- 
             k(s)              :                1.8500
             k(p)              :                2.2300
             k(d)              :                2.2300
             k(f)              :                2.0000
             kEN (H0ij)        :               -2.0000
             D4 a1             :                0.5200
             D4 a2             :                5.0000
             D4 s6             :                1.0000
             D4 s8             :                2.7000
             D4 s9             :                5.0000
             alphaj            :                2.0000

  Z AO/shell   Hii/eV     exponent
  1     Wed Apr 25 08:07:45 CEST 2018   EN: 2.200 GM2: 0.406  GM3: 0.0800  RAES: 1.40
     1s    -10.707211    1.230000
  6     Wed Apr 25 08:07:45 CEST 2018   EN: 2.550 GM2: 0.538  GM3: 0.1500  RAES: 3.00
     2s    -13.970922    2.096432
     2p    -10.063292    1.800000
  7     Wed Apr 25 08:07:45 CEST 2018   EN: 3.040 GM2: 0.461  GM3:-0.0640  RAES: 1.90
     2s    -16.686243    2.339881
     2p    -12.523956    2.014332
  8     Wed Apr 25 08:07:45 CEST 2018   EN: 3.440 GM2: 0.452  GM3:-0.0517  RAES: 1.80
     2s    -20.229985    2.439742
     2p    -15.503117    2.137023
 17     Mon Apr 23 14:09:22 CEST 2018   EN: 3.160 GM2: 0.249  GM3: 0.1495  RAES: 2.50
     3s    -29.278781    2.485265
     3p    -12.673758    2.199650
     3d     -0.240338    2.476089


            Z     q(EN)     CN     RAES       Cart. coordinates
     1  C   4.0   -0.21    3.98    3.59   -21.50111    -3.34746     2.88561
     2  C   4.0   -0.04    3.02    3.02   -19.21719    -1.82907     2.17640
     3  C   4.0   -0.10    3.02    3.02   -19.54544     0.91236     2.00405
     4  C   4.0   -0.02    3.02    3.02   -17.55896     2.36480     1.37610
     5  N   5.0   -0.30    3.13    1.94   -15.23667     1.22530     0.90499
     6  C   4.0   -0.01    3.16    3.03   -12.97221     2.30414     0.24604
     7  C   4.0    0.13    3.31    3.06   -11.28847     0.32484     0.01852
     8  C   4.0   -0.01    3.02    3.02    -8.62225     0.49681    -0.64383
     9  C   4.0   -0.09    3.03    3.02    -7.20571    -1.72173    -0.92181
    10  C   4.0   -0.09    3.02    3.02    -4.63928    -1.62044    -1.54542
    11  C   4.0    0.09    3.04    3.02    -3.43231     0.69599    -1.89672
    12  O   6.0   -0.33    1.99    1.83    -0.92389     0.52988    -2.48858
    13  C   4.0   -0.06    3.99    3.61     0.45656     2.83931    -2.66017
    14  C   4.0   -0.14    3.97    3.58     3.24315     2.24197    -3.13921
    15  C   4.0   -0.05    4.00    3.62     4.40646     0.74228    -0.94732
    16  N   5.0   -0.35    2.99    1.92     7.08080     0.09770    -1.39235
    17  C   4.0   -0.05    4.00    3.62     7.90094    -1.85136     0.45467
    18  C   4.0   -0.04    3.99    3.60    10.70133    -2.61727     0.13738
    19  N   5.0   -0.33    3.00    1.93    12.33103    -0.37454     0.26664
    20  C   4.0    0.07    3.06    3.02    14.91145    -0.65479     0.72925
    21  C   4.0   -0.10    3.02    3.02    16.29530    -2.55491    -0.51079
    22  C   4.0   -0.12    3.02    3.02    18.88517    -2.86596    -0.10866
    23  C   4.0   -0.10    3.07    3.02    20.15582    -1.27273     1.55033
    24  C   4.0    0.01    3.05    3.02    18.83943     0.63363     2.81475
    25  Cl  7.0   -0.11    1.08    2.53    20.56135     2.52751     4.85301
    26  C   4.0    0.02    3.04    3.02    16.23218     0.95242     2.41753
    27  Cl  7.0   -0.11    1.07    2.53    14.58509     3.26790     4.08332
    28  C   4.0   -0.04    3.99    3.60    11.59271     1.68299    -1.45377
    29  C   4.0   -0.04    4.00    3.61     8.75888     2.33003    -1.12590
    30  C   4.0   -0.10    3.02    3.02    -4.82371     2.91698    -1.63518
    31  C   4.0   -0.11    3.02    3.02    -7.39884     2.81645    -1.01195
    32  N   5.0   -0.40    2.07    1.90   -12.47881    -1.94245     0.51495
    33  C   4.0    0.24    3.36    3.07   -14.83718    -1.36344     1.04559
    34  C   4.0   -0.09    3.01    3.02   -16.94404    -2.89960     1.71077
    35  H   1.0    0.10    0.99    1.43   -23.01705    -3.07080     1.50441
    36  H   1.0    0.10    0.99    1.43   -22.19918    -2.78338     4.74888
    37  H   1.0    0.10    0.99    1.43   -21.08670    -5.37306     2.96026
    38  H   1.0    0.11    0.99    1.43   -21.38641     1.73080     2.38767
    39  H   1.0    0.11    0.99    1.43   -17.66554     4.40023     1.21472
    40  H   1.0    0.10    1.00    1.43   -12.78494     4.32180     0.01058
    41  H   1.0    0.13    0.99    1.43    -8.09634    -3.55609    -0.65139
    42  H   1.0    0.12    0.99    1.43    -3.57857    -3.36787    -1.75121
    43  H   1.0    0.10    0.99    1.43    -0.26305     3.96502    -4.24451
    44  H   1.0    0.10    0.99    1.43     0.28308     3.92213    -0.90083
    45  H   1.0    0.12    0.99    1.43     3.41379     1.13043    -4.88022
    46  H   1.0    0.09    0.99    1.43     4.24565     4.02795    -3.42758
    47  H   1.0    0.10    0.99    1.43     4.18385     1.78277     0.83299
    48  H   1.0    0.12    0.99    1.43     3.32705    -1.01648    -0.74814
    49  H   1.0    0.10    0.99    1.43     7.60634    -1.16407     2.39164
    50  H   1.0    0.09    0.99    1.43     6.74613    -3.55646     0.21845
    51  H   1.0    0.10    0.99    1.43    11.19190    -3.95331     1.64406
    52  H   1.0    0.10    0.99    1.43    10.94605    -3.57990    -1.68280
    53  H   1.0    0.11    0.99    1.43    15.36045    -3.80345    -1.84891
    54  H   1.0    0.11    0.99    1.43    19.90543    -4.34637    -1.10266
    55  H   1.0    0.12    0.99    1.43    22.17234    -1.52520     1.85590
    56  H   1.0    0.10    0.99    1.43    12.70104     3.39943    -1.11532
    57  H   1.0    0.11    0.99    1.43    11.95063     1.09944    -3.41209
    58  H   1.0    0.09    0.99    1.43     8.28494     3.75092    -2.55340
    59  H   1.0    0.10    0.99    1.43     8.48714     3.20516     0.73662
    60  H   1.0    0.10    0.99    1.43    -3.97334     4.76173    -1.90636
    61  H   1.0    0.11    0.99    1.43    -8.41760     4.58788    -0.81731
    62  H   1.0    0.12    0.99    1.43   -16.64830    -4.92481     1.82793

           ------------------------------------------------- 
          |        Self-Consistent Charge Iterations        |
           ------------------------------------------------- 

          ...................................................
          :                      SETUP                      :
          :.................................................:
          :  # basis functions                 176          :
          :  # atomic orbitals                 174          :
          :  # shells                           98          :
          :  # electrons                       176          :
          :  max. iterations                   250          :
          :  Hamiltonian                  GFN2-xTB          :
          :  restarted?                      false          :
          :  GBSA solvation                  false          :
          :  PC potential                    false          :
          :  electronic temp.          300.0000000     K    :
          :  accuracy                    1.0000000          :
          :  -> integral cutoff          0.2500000E+02      :
          :  -> integral neglect         0.1000000E-07      :
          :  -> SCF convergence          0.1000000E-05 Eh   :
          :  -> wf. convergence          0.1000000E-03 e    :
          :  Broyden damping             0.4000000          :
          ...................................................

 iter      E             dE          RMSdq      gap      omega  full diag
   1    -98.1395162 -0.981395E+02  0.396E+00    2.65       0.0  T
   2    -98.2606663 -0.121150E+00  0.243E+00    2.84       1.0  T
   3    -98.2405228  0.201435E-01  0.129E+00    2.89       1.0  T
   4    -98.2808118 -0.402890E-01  0.435E-01    2.71       1.0  T
   5    -98.2886850 -0.787325E-02  0.991E-02    2.69       1.0  T
   6    -98.2888761 -0.191044E-03  0.516E-02    2.73       1.0  T
   7    -98.2889212 -0.450930E-04  0.267E-02    2.74       1.0  T
   8    -98.2889296 -0.842874E-05  0.132E-02    2.74       1.0  T
   9    -98.2889322 -0.257815E-05  0.906E-03    2.74       1.4  T
  10    -98.2889334 -0.123176E-05  0.606E-03    2.73       2.1  T
  11    -98.2889340 -0.621167E-06  0.368E-03    2.73       3.5  T
  12    -98.2889344 -0.404895E-06  0.133E-03    2.73       9.6  T
  13    -98.2889345 -0.355467E-07  0.701E-04    2.73      18.1  T
  14    -98.2889345 -0.683573E-08  0.395E-04    2.73      32.2  T

   *** convergence criteria satisfied after 14 iterations ***

         #    Occupation            Energy/Eh            Energy/eV
      -------------------------------------------------------------
         1        2.0000           -1.0551638             -28.7125
       ...           ...                  ...                  ...
        82        2.0000           -0.3943867             -10.7318
        83        2.0000           -0.3939134             -10.7189
        84        2.0000           -0.3757744             -10.2253
        85        2.0000           -0.3706727             -10.0865
        86        2.0000           -0.3596284              -9.7860
        87        2.0000           -0.3594421              -9.7809
        88        2.0000           -0.3523937              -9.5891 (HOMO)
        89                         -0.2520349              -6.8582 (LUMO)
        90                         -0.2471632              -6.7257
        91                         -0.2439033              -6.6369
        92                         -0.2258232              -6.1450
        93                         -0.2196581              -5.9772
       ...                                ...                  ...
       174                          0.6818291              18.5535
      -------------------------------------------------------------
                  HL-Gap            0.1003588 Eh            2.7309 eV
             Fermi-level           -0.3022143 Eh           -8.2237 eV

 SCC (total)                   0 d,  0 h,  0 min,  1.131 sec
 SCC setup                      ...        0 min,  0.008 sec (  0.741%)
 Dispersion                     ...        0 min,  0.002 sec (  0.191%)
 integral evaluation            ...        0 min,  0.021 sec (  1.823%)
 zeroth order Hamiltonian       ...        0 min,  0.001 sec (  0.047%)
 iterations                     ...        0 min,  0.990 sec ( 87.552%)
 molecular gradient             ...        0 min,  0.101 sec (  8.904%)
 printout                       ...        0 min,  0.008 sec (  0.736%)

         :::::::::::::::::::::::::::::::::::::::::::::::::::::
         ::                     SUMMARY                     ::
         :::::::::::::::::::::::::::::::::::::::::::::::::::::
         :: total energy              -96.992687002180 Eh   ::
         :: gradient norm               0.087368538485 Eh/α ::
         :: HOMO-LUMO gap               2.730902989416 eV   ::
         ::.................................................::
         :: SCC energy                -98.288934462946 Eh   ::
         :: -> isotropic ES             0.047313522398 Eh   ::
         :: -> anisotropic ES           0.012679739922 Eh   ::
         :: -> anisotropic XC           0.051381471905 Eh   ::
         :: -> dispersion              -0.069455446686 Eh   ::
         :: repulsion energy            1.296966622674 Eh   ::
         :: add. restraining            0.000000000000 Eh   ::
         :::::::::::::::::::::::::::::::::::::::::::::::::::::

      ----------------------------------------------------------- 
     |                   =====================                   |
     |                        A N C O P T                        |
     |                   =====================                   |
     |               Approximate Normal Coordinate               |
     |                Rational Function Optimizer                |
      ----------------------------------------------------------- 

          ...................................................
          :                      SETUP                      :
          :.................................................:
          :   optimization level            normal          :
          :   max. optcycles                   200          :
          :   ANC micro-cycles                  20          :
          :   degrees of freedom               180          :
          :.................................................:
          :   RF solver                   davidson          :
          :   input Hessian                  false          :
          :   write xtbopt.log                true          :
          :   linear?                        false          :
          :   energy convergence         0.5000000E-05 Eh   :
          :   grad. convergence          0.1000000E-02 Eh/α :
          :   maximium RF displ.         1.0000000          :
          :   Hlow (freq-cutoff)         0.1000000E-01      :
          :   Hmax (freq-cutoff)         5.0000000          :
          :   S6 in model hess.         20.0000000          :
          ...................................................

generating ANC from model Hessian ...
Using Lindh-Hessian (1995)
 Shifting diagonal of input Hessian by   9.945579698015919E-003
 Lowest  eigenvalues of input Hessian
   -0.000000   -0.000000   -0.000000    0.000000    0.000000    0.000000
    0.010000    0.010116    0.010227    0.010355    0.010605    0.010845
    0.011313    0.011501    0.011576    0.012348    0.012596    0.013264
 Highest eigenvalues
    1.990699    1.993731    2.010016    2.072151    2.106743    2.270735
 

........................................................................
.............................. CYCLE    1 ..............................
........................................................................
   1    -98.2889345 -0.982889E+02  0.270E-04    2.73       0.0  T
   2    -98.2889345 -0.604942E-09  0.218E-04    2.73      58.1  T
   3    -98.2889345 -0.365887E-09  0.181E-04    2.73      70.0  T
     SCC iter.                  ...        0 min,  0.164 sec
     gradient                   ...        0 min,  0.061 sec
 * total energy  :   -96.9926871 Eh     change       -0.6446048E-07 Eh
   gradient norm :     0.0873681 Eh/α   predicted     0.0000000E+00 (-100.00%)
   displ. norm   :     0.3285012 α      lambda       -0.1559511E-01
   maximum displ.:     0.1115029 α      in ANC's #60, #57, #103, ...

........................................................................
.............................. CYCLE    2 ..............................
........................................................................
   1    -98.3443097 -0.983443E+02  0.194E-01    2.75       0.0  T
   2    -98.3444435 -0.133836E-03  0.110E-01    2.78       1.0  T
   3    -98.3444053  0.381881E-04  0.470E-02    2.79       1.0  T
   4    -98.3444650 -0.596737E-04  0.153E-02    2.79       1.0  T
   5    -98.3444726 -0.757877E-05  0.697E-03    2.79       1.8  T
   6    -98.3444729 -0.380832E-06  0.495E-03    2.79       2.6  T
   7    -98.3444734 -0.428052E-06  0.323E-03    2.79       3.9  T
     SCC iter.                  ...        0 min,  0.413 sec
     gradient                   ...        0 min,  0.098 sec
 * total energy  :   -97.0034974 Eh     change       -0.1081035E-01 Eh
   gradient norm :     0.0419273 Eh/α   predicted    -0.8638998E-02 ( -20.09%)
   displ. norm   :     0.3389200 α      lambda       -0.5330347E-02
   maximum displ.:     0.1290990 α      in ANC's #11, #12, #39, ...

........................................................................
.............................. CYCLE    3 ..............................
........................................................................
   1    -98.3717992 -0.983718E+02  0.174E-01    2.77       0.0  T
   2    -98.3718835 -0.842945E-04  0.980E-02    2.79       1.0  T
   3    -98.3718594  0.240517E-04  0.370E-02    2.80       1.0  T
   4    -98.3718984 -0.389595E-04  0.123E-02    2.80       1.0  T
   5    -98.3719026 -0.423761E-05  0.670E-03    2.80       1.9  T
   6    -98.3719030 -0.398444E-06  0.477E-03    2.80       2.7  T
   7    -98.3719035 -0.447603E-06  0.307E-03    2.80       4.1  T
     SCC iter.                  ...        0 min,  0.723 sec
     gradient                   ...        0 min,  0.084 sec
 * total energy  :   -97.0067367 Eh     change       -0.3239244E-02 Eh
   gradient norm :     0.0126864 Eh/α   predicted    -0.2971314E-02 (  -8.27%)
   displ. norm   :     0.2934573 α      lambda       -0.1260622E-02
   maximum displ.:     0.1435654 α      in ANC's #11, #12, #8, ...

........................................................................
.............................. CYCLE    4 ..............................
........................................................................
   1    -98.3735280 -0.983735E+02  0.103E-01    2.79       0.0  T
   2    -98.3735394 -0.114644E-04  0.589E-02    2.80       1.0  T
   3    -98.3735356  0.381203E-05  0.124E-02    2.80       1.0  T
   4    -98.3735420 -0.635055E-05  0.480E-03    2.80       2.6  T
   5    -98.3735425 -0.575110E-06  0.313E-03    2.80       4.1  T
   6    -98.3735426 -0.103647E-06  0.210E-03    2.80       6.0  T
   7    -98.3735427 -0.923067E-07  0.138E-03    2.80       9.2  T
     SCC iter.                  ...        0 min,  0.411 sec
     gradient                   ...        0 min,  0.081 sec
 * total energy  :   -97.0077144 Eh     change       -0.9777200E-03 Eh
   gradient norm :     0.0088703 Eh/α   predicted    -0.6846127E-03 ( -29.98%)
   displ. norm   :     0.4527633 α      lambda       -0.1279216E-02
   maximum displ.:     0.2192788 α      in ANC's #11, #12, #8, ...

........................................................................
.............................. CYCLE    5 ..............................
........................................................................
   1    -98.3711830 -0.983712E+02  0.153E-01    2.78       0.0  T
   2    -98.3712010 -0.180121E-04  0.881E-02    2.79       1.0  T
   3    -98.3711859  0.151343E-04  0.209E-02    2.79       1.0  T
   4    -98.3712063 -0.203639E-04  0.560E-03    2.79       2.3  T
   5    -98.3712069 -0.652621E-06  0.343E-03    2.79       3.7  T
   6    -98.3712070 -0.786897E-07  0.219E-03    2.79       5.8  T
   7    -98.3712071 -0.989551E-07  0.140E-03    2.79       9.1  T
     SCC iter.                  ...        0 min,  0.448 sec
     gradient                   ...        0 min,  0.100 sec
 * total energy  :   -97.0086279 Eh     change       -0.9134763E-03 Eh
   gradient norm :     0.0104337 Eh/α   predicted    -0.7708296E-03 ( -15.62%)
   displ. norm   :     0.4049595 α      lambda       -0.7401787E-03
   maximum displ.:     0.2063927 α      in ANC's #12, #11, #8, ...

........................................................................
.............................. CYCLE    6 ..............................
........................................................................
   1    -98.3709851 -0.983710E+02  0.151E-01    2.79       0.0  T
   2    -98.3710012 -0.161702E-04  0.870E-02    2.79       1.0  T
   3    -98.3709790  0.222503E-04  0.242E-02    2.79       1.0  T
   4    -98.3710080 -0.289880E-04  0.518E-03    2.79       2.4  T
   5    -98.3710083 -0.356216E-06  0.350E-03    2.79       3.6  T
   6    -98.3710084 -0.109129E-06  0.207E-03    2.79       6.1  T
   7    -98.3710085 -0.809731E-07  0.145E-03    2.79       8.7  T
     SCC iter.                  ...        0 min,  0.812 sec
     gradient                   ...        0 min,  0.108 sec
 * total energy  :   -97.0091959 Eh     change       -0.5680588E-03 Eh
   gradient norm :     0.0106360 Eh/α   predicted    -0.4307919E-03 ( -24.16%)
   displ. norm   :     0.4392661 α      lambda       -0.7095365E-03
   maximum displ.:     0.2382110 α      in ANC's #12, #8, #9, ...

........................................................................
.............................. CYCLE    7 ..............................
........................................................................
   1    -98.3736185 -0.983736E+02  0.184E-01    2.78       0.0  T
   2    -98.3736451 -0.265373E-04  0.106E-01    2.79       1.0  T
   3    -98.3736026  0.424244E-04  0.328E-02    2.79       1.0  T
   4    -98.3736579 -0.552747E-04  0.653E-03    2.79       1.9  T
   5    -98.3736584 -0.468878E-06  0.451E-03    2.79       2.8  T
   6    -98.3736586 -0.225445E-06  0.263E-03    2.79       4.8  T
   7    -98.3736587 -0.121005E-06  0.191E-03    2.79       6.6  T
     SCC iter.                  ...        0 min,  0.302 sec
     gradient                   ...        0 min,  0.119 sec
 * total energy  :   -97.0097369 Eh     change       -0.5410125E-03 Eh
   gradient norm :     0.0082303 Eh/α   predicted    -0.4232236E-03 ( -21.77%)
   displ. norm   :     0.4182162 α      lambda       -0.5722396E-03
   maximum displ.:     0.2365982 α      in ANC's #12, #8, #9, ...

........................................................................
.............................. CYCLE    8 ..............................
........................................................................
   1    -98.3776624 -0.983777E+02  0.188E-01    2.78       0.0  T
   2    -98.3776948 -0.323811E-04  0.108E-01    2.79       1.0  T
   3    -98.3776442  0.505752E-04  0.360E-02    2.78       1.0  T
   4    -98.3777106 -0.663732E-04  0.695E-03    2.79       1.8  T
   5    -98.3777111 -0.537976E-06  0.483E-03    2.79       2.6  T
   6    -98.3777114 -0.246072E-06  0.300E-03    2.79       4.2  T
   7    -98.3777116 -0.168710E-06  0.214E-03    2.79       5.9  T
     SCC iter.                  ...        0 min,  0.418 sec
     gradient                   ...        0 min,  0.078 sec
 * total energy  :   -97.0101633 Eh     change       -0.4264130E-03 Eh
   gradient norm :     0.0062603 Eh/α   predicted    -0.3361652E-03 ( -21.16%)
   displ. norm   :     0.3517618 α      lambda       -0.3930240E-03
   maximum displ.:     0.1968767 α      in ANC's #12, #9, #8, ...

........................................................................
.............................. CYCLE    9 ..............................
........................................................................
   1    -98.3809277 -0.983809E+02  0.161E-01    2.77       0.0  T
   2    -98.3809551 -0.274140E-04  0.918E-02    2.78       1.0  T
   3    -98.3809157  0.393527E-04  0.325E-02    2.78       1.0  T
   4    -98.3809679 -0.521783E-04  0.601E-03    2.78       2.1  T
   5    -98.3809684 -0.437553E-06  0.415E-03    2.78       3.1  T
   6    -98.3809685 -0.172714E-06  0.261E-03    2.78       4.9  T
   7    -98.3809687 -0.126898E-06  0.185E-03    2.78       6.9  T
     SCC iter.                  ...        0 min,  0.359 sec
     gradient                   ...        0 min,  0.097 sec
 * total energy  :   -97.0104531 Eh     change       -0.2897772E-03 Eh
   gradient norm :     0.0056677 Eh/α   predicted    -0.2208541E-03 ( -23.78%)
   displ. norm   :     0.2890717 α      lambda       -0.2530502E-03
   maximum displ.:     0.1619855 α      in ANC's #9, #12, #8, ...

........................................................................
.............................. CYCLE   10 ..............................
........................................................................
   1    -98.3820512 -0.983821E+02  0.126E-01    2.76       0.0  T
   2    -98.3820696 -0.183946E-04  0.722E-02    2.77       1.0  T
   3    -98.3820456  0.240121E-04  0.262E-02    2.76       1.0  T
   4    -98.3820777 -0.321242E-04  0.463E-03    2.77       2.7  T
   5    -98.3820780 -0.285069E-06  0.312E-03    2.77       4.1  T
   6    -98.3820781 -0.985262E-07  0.190E-03    2.77       6.7  T
   7    -98.3820782 -0.625284E-07  0.136E-03    2.77       9.4  T
     SCC iter.                  ...        0 min,  0.553 sec
     gradient                   ...        0 min,  0.104 sec
 * total energy  :   -97.0106393 Eh     change       -0.1861888E-03 Eh
   gradient norm :     0.0048286 Eh/α   predicted    -0.1370985E-03 ( -26.37%)
   displ. norm   :     0.2357727 α      lambda       -0.1541551E-03
   maximum displ.:     0.1350928 α      in ANC's #9, #8, #12, ...

........................................................................
.............................. CYCLE   11 ..............................
........................................................................
   1    -98.3815293 -0.983815E+02  0.972E-02    2.75       0.0  T
   2    -98.3815393 -0.995542E-05  0.557E-02    2.76       1.0  T
   3    -98.3815264  0.128980E-04  0.194E-02    2.75       1.0  T
   4    -98.3815436 -0.171961E-04  0.338E-03    2.76       3.8  T
   5    -98.3815437 -0.153696E-06  0.224E-03    2.76       5.7  T
   6    -98.3815438 -0.489308E-07  0.135E-03    2.76       9.4  T
     SCC iter.                  ...        0 min,  0.513 sec
     gradient                   ...        0 min,  0.106 sec
 * total energy  :   -97.0107481 Eh     change       -0.1087718E-03 Eh
   gradient norm :     0.0036130 Eh/α   predicted    -0.8136524E-04 ( -25.20%)
   displ. norm   :     0.1540404 α      lambda       -0.7175232E-04
   maximum displ.:     0.0867943 α      in ANC's #9, #8, #12, ...

........................................................................
.............................. CYCLE   12 ..............................
........................................................................
   1    -98.3806497 -0.983806E+02  0.597E-02    2.75       0.0  T
   2    -98.3806525 -0.279302E-05  0.344E-02    2.75       1.0  T
   3    -98.3806487  0.377506E-05  0.103E-02    2.75       1.2  T
   4    -98.3806537 -0.498355E-05  0.199E-03    2.75       6.4  T
   5    -98.3806537 -0.516671E-07  0.134E-03    2.75       9.4  T
   6    -98.3806537 -0.152401E-07  0.865E-04    2.75      14.7  T
   7    -98.3806538 -0.152580E-07  0.614E-04    2.75      20.7  T
     SCC iter.                  ...        0 min,  0.613 sec
     gradient                   ...        0 min,  0.132 sec
 * total energy  :   -97.0107980 Eh     change       -0.4990762E-04 Eh
   gradient norm :     0.0024224 Eh/α   predicted    -0.3673232E-04 ( -26.40%)
   displ. norm   :     0.0966043 α      lambda       -0.3493713E-04
   maximum displ.:     0.0476590 α      in ANC's #9, #8, #2, ...

........................................................................
.............................. CYCLE   13 ..............................
........................................................................
   1    -98.3801641 -0.983802E+02  0.357E-02    2.75       0.0  T
   2    -98.3801646 -0.500306E-06  0.207E-02    2.75       1.0  T
   3    -98.3801640  0.592067E-06  0.408E-03    2.75       3.1  T
   4    -98.3801648 -0.826709E-06  0.104E-03    2.75      12.2  T
   5    -98.3801648 -0.108611E-07  0.717E-04    2.75      17.7  T
   6    -98.3801649 -0.598666E-08  0.446E-04    2.75      28.5  T
     SCC iter.                  ...        0 min,  0.599 sec
     gradient                   ...        0 min,  0.084 sec
 * total energy  :   -97.0108227 Eh     change       -0.2469523E-04 Eh
   gradient norm :     0.0017194 Eh/α   predicted    -0.1763190E-04 ( -28.60%)
   displ. norm   :     0.1109186 α      lambda       -0.2265937E-04
   maximum displ.:     0.0537598 α      in ANC's #8, #9, #2, ...

........................................................................
.............................. CYCLE   14 ..............................
........................................................................
   1    -98.3795548 -0.983796E+02  0.435E-02    2.75       0.0  T
   2    -98.3795553 -0.528891E-06  0.253E-02    2.75       1.0  T
   3    -98.3795548  0.571286E-06  0.358E-03    2.75       3.5  T
   4    -98.3795556 -0.831837E-06  0.126E-03    2.75      10.1  T
   5    -98.3795556 -0.167635E-07  0.869E-04    2.75      14.6  T
   6    -98.3795556 -0.983853E-08  0.537E-04    2.75      23.7  T
     SCC iter.                  ...        0 min,  0.350 sec
     gradient                   ...        0 min,  0.107 sec
 * total energy  :   -97.0108416 Eh     change       -0.1895703E-04 Eh
   gradient norm :     0.0017799 Eh/α   predicted    -0.1139157E-04 ( -39.91%)
   displ. norm   :     0.0566379 α      lambda       -0.1033311E-04
   maximum displ.:     0.0306054 α      in ANC's #12, #2, #17, ...

........................................................................
.............................. CYCLE   15 ..............................
........................................................................
   1    -98.3804496 -0.983804E+02  0.201E-02    2.76       0.0  T
   2    -98.3804501 -0.409023E-06  0.117E-02    2.75       1.1  T
   3    -98.3804495  0.567322E-06  0.389E-03    2.75       3.3  T
   4    -98.3804502 -0.739055E-06  0.810E-04    2.75      15.7  T
   5    -98.3804502 -0.985796E-08  0.554E-04    2.75      22.9  T
     SCC iter.                  ...        0 min,  0.278 sec
     gradient                   ...        0 min,  0.104 sec
 * total energy  :   -97.0108517 Eh     change       -0.1001803E-04 Eh
   gradient norm :     0.0014395 Eh/α   predicted    -0.5179351E-05 ( -48.30%)
   displ. norm   :     0.0868886 α      lambda       -0.1398504E-04
   maximum displ.:     0.0392344 α      in ANC's #2, #8, #13, ...

........................................................................
.............................. CYCLE   16 ..............................
........................................................................
   1    -98.3799498 -0.983799E+02  0.344E-02    2.76       0.0  T
   2    -98.3799502 -0.383804E-06  0.202E-02    2.76       1.0  T
   3    -98.3799494  0.817848E-06  0.417E-03    2.76       3.0  T
   4    -98.3799505 -0.104575E-05  0.115E-03    2.76      11.0  T
   5    -98.3799505 -0.137339E-07  0.861E-04    2.76      14.7  T
   6    -98.3799505 -0.116509E-07  0.540E-04    2.76      23.5  T
     SCC iter.                  ...        0 min,  0.358 sec
     gradient                   ...        0 min,  0.118 sec
 * total energy  :   -97.0108593 Eh     change       -0.7695654E-05 Eh
   gradient norm :     0.0016764 Eh/α   predicted    -0.7018091E-05 (  -8.80%)
   displ. norm   :     0.0358822 α      lambda       -0.6605499E-05
   maximum displ.:     0.0185152 α      in ANC's #2, #7, #3, ...

........................................................................
.............................. CYCLE   17 ..............................
........................................................................
   1    -98.3805242 -0.983805E+02  0.113E-02    2.76       0.0  T
   2    -98.3805243 -0.619161E-07  0.658E-03    2.76       1.9  T
   3    -98.3805242  0.485738E-07  0.118E-03    2.76      10.8  T
   4    -98.3805243 -0.719199E-07  0.351E-04    2.76      36.2  T
   5    -98.3805243 -0.140255E-08  0.252E-04    2.76      50.3  T
     SCC iter.                  ...        0 min,  0.460 sec
     gradient                   ...        0 min,  0.129 sec
 * total energy  :   -97.0108663 Eh     change       -0.6935499E-05 Eh
   gradient norm :     0.0009060 Eh/α   predicted    -0.3305421E-05 ( -52.34%)
   displ. norm   :     0.0775428 α      lambda       -0.8497133E-05
   maximum displ.:     0.0446652 α      in ANC's #2, #8, #3, ...

........................................................................
.............................. CYCLE   18 ..............................
........................................................................
   1    -98.3804775 -0.983805E+02  0.266E-02    2.76       0.0  T
   2    -98.3804780 -0.501124E-06  0.153E-02    2.76       1.0  T
   3    -98.3804772  0.799899E-06  0.431E-03    2.76       2.9  T
   4    -98.3804782 -0.100654E-05  0.684E-04    2.76      18.6  T
   5    -98.3804782 -0.871246E-08  0.415E-04    2.76      30.6  T
   6    -98.3804782 -0.119232E-08  0.252E-04    2.76      50.4  T
     SCC iter.                  ...        0 min,  0.379 sec
     gradient                   ...        0 min,  0.085 sec
 * total energy  :   -97.0108741 Eh     change       -0.7765636E-05 Eh
   gradient norm :     0.0010700 Eh/α   predicted    -0.4265525E-05 ( -45.07%)
   displ. norm   :     0.0889059 α      lambda       -0.7632429E-05
   maximum displ.:     0.0526848 α      in ANC's #2, #3, #8, ...

........................................................................
.............................. CYCLE   19 ..............................
........................................................................
   1    -98.3806380 -0.983806E+02  0.286E-02    2.76       0.0  T
   2    -98.3806383 -0.263492E-06  0.166E-02    2.76       1.0  T
   3    -98.3806381  0.206514E-06  0.242E-03    2.76       5.3  T
   4    -98.3806384 -0.325916E-06  0.740E-04    2.76      17.2  T
   5    -98.3806384 -0.490083E-08  0.492E-04    2.76      25.8  T
     SCC iter.                  ...        0 min,  0.245 sec
     gradient                   ...        0 min,  0.144 sec
 * total energy  :   -97.0108831 Eh     change       -0.9090203E-05 Eh
   gradient norm :     0.0013734 Eh/α   predicted    -0.3830187E-05 ( -57.86%)
   displ. norm   :     0.1559646 α      lambda       -0.1152092E-04
   maximum displ.:     0.0928803 α      in ANC's #2, #3, #8, ...

........................................................................
.............................. CYCLE   20 ..............................
........................................................................
   1    -98.3803890 -0.983804E+02  0.470E-02    2.76       0.0  T
   2    -98.3803897 -0.724365E-06  0.272E-02    2.76       1.0  T
   3    -98.3803894  0.277406E-06  0.343E-03    2.76       3.7  T
   4    -98.3803900 -0.598488E-06  0.118E-03    2.76      10.8  T
   5    -98.3803901 -0.114795E-07  0.712E-04    2.76      17.8  T
   6    -98.3803901 -0.643209E-08  0.396E-04    2.76      32.1  T
     SCC iter.                  ...        0 min,  0.269 sec
     gradient                   ...        0 min,  0.092 sec
 * total energy  :   -97.0108971 Eh     change       -0.1393361E-04 Eh
   gradient norm :     0.0012757 Eh/α   predicted    -0.5823187E-05 ( -58.21%)
   displ. norm   :     0.1577136 α      lambda       -0.1051109E-04
   maximum displ.:     0.0965609 α      in ANC's #2, #3, #8, ...
 * RMSD in coord.:     0.4181224 α      energy gain  -0.1821007E-01 Eh

generating ANC from model Hessian ...
Using Lindh-Hessian (1995)
 Shifting diagonal of input Hessian by   9.939856655328158E-003
 Lowest  eigenvalues of input Hessian
   -0.000000   -0.000000   -0.000000    0.000000    0.000000    0.000000
    0.010000    0.010113    0.010240    0.010361    0.010600    0.010862
    0.010928    0.011498    0.011740    0.012557    0.012757    0.013599
 Highest eigenvalues
    2.044282    2.083907    2.091367    2.139631    2.170134    2.361276
 

........................................................................
.............................. CYCLE   21 ..............................
........................................................................
   1    -98.3800769 -0.983801E+02  0.486E-02    2.76       0.0  T
   2    -98.3800776 -0.697199E-06  0.281E-02    2.76       1.0  T
   3    -98.3800776  0.728664E-08  0.285E-03    2.76       4.5  T
   4    -98.3800779 -0.345091E-06  0.133E-03    2.76       9.6  T
   5    -98.3800779 -0.146514E-07  0.683E-04    2.76      18.6  T
   6    -98.3800779 -0.646685E-08  0.458E-04    2.76      27.7  T
     SCC iter.                  ...        0 min,  0.456 sec
     gradient                   ...        0 min,  0.095 sec
 * total energy  :   -97.0109087 Eh     change       -0.1166873E-04 Eh
   gradient norm :     0.0010255 Eh/α   predicted     0.0000000E+00 (-100.00%)
   displ. norm   :     0.0221383 α      lambda       -0.4159391E-05
   maximum displ.:     0.0119110 α      in ANC's #2, #3, #12, ...

........................................................................
.............................. CYCLE   22 ..............................
........................................................................
   1    -98.3804191 -0.983804E+02  0.794E-03    2.76       0.0  T
   2    -98.3804191 -0.499386E-07  0.458E-03    2.76       2.8  T
   3    -98.3804191  0.486607E-07  0.105E-03    2.76      12.1  T
   4    -98.3804191 -0.681590E-07  0.294E-04    2.76      43.2  T
   5    -98.3804191 -0.119188E-08  0.183E-04    2.76      69.3  T
     SCC iter.                  ...        0 min,  0.246 sec
     gradient                   ...        0 min,  0.092 sec
 * total energy  :   -97.0109130 Eh     change       -0.4241612E-05 Eh
   gradient norm :     0.0003888 Eh/α   predicted    -0.2092652E-05 ( -50.66%)
   displ. norm   :     0.0438610 α      lambda       -0.4709409E-05
   maximum displ.:     0.0261236 α      in ANC's #2, #3, #12, ...

   *** GEOMETRY OPTIMIZATION CONVERGED AFTER 22 ITERATIONS ***

------------------------------------------------------------------------
 total energy gain :          -0.0182260 Eh      -11.4370 kcal/mol
 total RMSD        :           0.4179760 α         0.2212 Å
------------------------------------------------------------------------

 ANCopt (total)                0 d,  0 h,  0 min, 12.945 sec
 optimizer setup                ...        0 min,  0.000 sec (  0.002%)
 model hessian                  ...        0 min,  0.381 sec (  2.942%)
 ANC generation                 ...        0 min,  0.041 sec (  0.316%)
 coordinate transformation      ...        0 min,  0.125 sec (  0.966%)
 single point calculation       ...        0 min, 12.321 sec ( 95.180%)
 optimization log               ...        0 min,  0.009 sec (  0.069%)
 hessian update                 ...        0 min,  0.006 sec (  0.045%)
 rational function              ...        0 min,  0.055 sec (  0.423%)

================
 final structure:
================
$coord
  -21.31077373547928   -3.49997393295381    2.78316284445065      C 
  -19.09753527127386   -1.87687097826149    2.10158819348071      C 
  -19.42779853012877    0.77777592916490    1.96011210429005      C 
  -17.47089025421734    2.32748220803550    1.35226446724035      C 
  -15.16921509439869    1.32358002585541    0.87617313227769      N 
  -12.92525707608458    2.39678810116608    0.25135084250474      C 
  -11.21086149667075    0.43206803472343    0.00501405019040      C 
   -8.54321457200112    0.55687434005569   -0.62112223744937      C 
   -7.13499593982323   -1.66993527627528   -0.78925494969901      C 
   -4.60011919087060   -1.60052995179160   -1.35506931738847      C 
   -3.37990190039360    0.70391882990112   -1.77185943562812      C 
   -0.86596830239591    0.56871948863589   -2.30539977970478      O 
    0.49744343602878    2.83881282075393   -2.62352804503995      C 
    3.27236253019603    2.19227891456140   -3.05018828153575      C 
    4.41133643401108    0.86475829520719   -0.74961706947665      C 
    7.06461037030016    0.28605196111430   -1.14753744657930      N 
    7.93064826425579   -1.84514482574260    0.34208131578140      C 
   10.64043200006619   -2.52794526418587   -0.39665197566928      C 
   12.23808037074064   -0.36447184386696    0.08358176829180      N 
   14.78912337258822   -0.71529679525306    0.53931062541617      C 
   16.06759655879192   -2.91187846726103   -0.19198073919110      C 
   18.59330347102177   -3.26797502576226    0.35536983564157      C 
   19.95236921735914   -1.44092454123267    1.63640175704603      C 
   18.71905198161773    0.73478676795414    2.41517719463792      C 
   20.37950384200112    2.99405277637563    4.08392641929595      Cl
   16.17022140159103    1.09158906672344    1.91473670262106      C 
   14.69439191258150    3.73524645622265    3.14221525596102      Cl
   11.39852567295188    1.78368724388991   -1.39465580768304      C 
    8.69129216033949    2.44081801870499   -0.66414160587099      C 
   -4.77163689448050    2.92897254674931   -1.61961837125284      C 
   -7.32098303127201    2.84423706263651   -1.05130153305204      C 
  -12.37001359110163   -1.81141631523175    0.46508423414264      N 
  -14.74274595319011   -1.28168743158749    0.98939462709425      C 
  -16.76264484762122   -2.87979522958364    1.61310393983005      C 
  -22.83104054103516   -3.24700537271529    1.41790012209919      H 
  -22.03855336748830   -2.97431943976674    4.63611201107042      H 
  -20.78016687066193   -5.48280410180320    2.82071650221022      H 
  -21.26224160757340    1.57869762206664    2.34242363846006      H 
  -17.64507336480912    4.35708765712051    1.22554564078608      H 
  -12.72123433651701    4.39752313702033    0.03475281328644      H 
   -8.08869371936623   -3.43989240137949   -0.45804780507599      H 
   -3.49968086457680   -3.31176173102425   -1.48606467228561      H 
   -0.23710972733085    3.89035776344651   -4.25767829822146      H 
    0.30616216965018    4.02683992053886   -0.92928510501203      H 
    3.44237025759795    0.94785410636924   -4.68183771895248      H 
    4.28477700429111    3.93997661007519   -3.45525227339486      H 
    4.12997452580762    2.03986480962438    0.95111800218402      H 
    3.38627374737437   -0.90300069767831   -0.47009613988841      H 
    7.88020497107596   -1.42862889046887    2.38715148071940      H 
    6.70163648206200   -3.46022905387989   -0.03224571446561      H 
   11.27226964769524   -4.11560325842900    0.75690608511978      H 
   10.66724778346453   -3.07346333266526   -2.40392460084646      H 
   15.06465227942211   -4.34059010459941   -1.24184285944782      H 
   19.52588315941300   -4.97736395065211   -0.25018398485279      H 
   21.92973936037764   -1.68658902954567    2.05353101820024      H 
   12.63062312671141    3.39836574858452   -1.07926062946562      H 
   11.44149151786692    1.30124445579250   -3.41942271013867      H 
    8.05466125218295    4.03918885781241   -1.79911791793915      H 
    8.64345120780891    2.99482989828294    1.34835424544364      H 
   -3.89361427559607    4.74082680139847   -1.94150716027413      H 
   -8.36183335315640    4.59512996323574   -0.94092957215474      H 
  -16.40753583454266   -4.88319564335053    1.69368494267479      H 
$end
 
 Bond Distances (Angstroems)
 ---------------------------
C1-C2=1.4965         C1-H35=1.0895        C1-H36=1.0896        C1-H37=1.0864        C2-C1=1.4965         C2-C3=1.4176         
C2-C34=1.3694        C3-C2=1.4176         C3-C4=1.3595         C3-H38=1.0784        C4-C3=1.3595         C4-N5=1.3525         
C4-H39=1.0801        N5-C4=1.3525         N5-C6=1.3572         N5-C33=1.3983        C6-N5=1.3572         C6-C7=1.3860         
C6-H40=1.0704        C7-C6=1.3860         C7-C8=1.4515         C7-N32=1.3583        C8-C7=1.4515         C8-C9=1.3971         
C8-C31=1.3911        C9-C8=1.3971         C9-C10=1.3749        C9-H41=1.0783        C10-C9=1.3749        C10-C11=1.3974       
C10-H42=1.0789       C11-C10=1.3974       C11-O12=1.3618       C11-C30=1.3911       O12-C11=1.3618       O12-C13=1.4114       
C13-O12=1.4114       C13-C14=1.5246       C13-H43=1.0993       C13-H44=1.0997       C14-C13=1.5246       C14-C15=1.5293       
C14-H45=1.0896       C14-H46=1.0901       C15-C14=1.5293       C15-N16=1.4524       C15-H47=1.1040       C15-H48=1.0914       
N16-C15=1.4524       N16-C17=1.4503       N16-C29=1.4514       C17-N16=1.4503       C17-C18=1.5296       C17-H49=1.1047       
C17-H50=1.0921       C18-C17=1.5296       C18-N19=1.4457       C18-H51=1.0910       C18-H52=1.1008       N19-C18=1.4457       
N19-C20=1.3838       N19-C28=1.4497       C20-N19=1.3838       C20-C21=1.3995       C20-C26=1.4065       C21-C20=1.3995       
C21-C22=1.3805       C21-H53=1.0779       C22-C21=1.3805       C22-C23=1.3826       C22-H54=1.0791       C23-C22=1.3826       
C23-C24=1.3861       C23-H55=1.0773       C24-C23=1.3861       C24-Cl25=1.7266      C24-C26=1.3874       Cl25-C24=1.7266      
C26-C20=1.4065       C26-C24=1.3874       C26-Cl27=1.7289      Cl27-C26=1.7289      C28-N19=1.4497       C28-C29=1.5240       
C28-H56=1.0877       C28-H57=1.1017       C29-N16=1.4514       C29-C28=1.5240       C29-H58=1.0907       C29-H59=1.1049       
C30-C11=1.3911       C30-C31=1.3829       C30-H60=1.0790       C31-C8=1.3911        C31-C30=1.3829       C31-H61=1.0795       
N32-C7=1.3583        N32-C33=1.3161       C33-N5=1.3983        C33-N32=1.3161       C33-C34=1.4024       C34-C2=1.3694        
C34-C33=1.4024       C34-H62=1.0775       H35-C1=1.0895        H36-C1=1.0896        H37-C1=1.0864        H38-C3=1.0784        
H39-C4=1.0801        H40-C6=1.0704        H41-C9=1.0783        H42-C10=1.0789       H43-C13=1.0993       H44-C13=1.0997       
H45-C14=1.0896       H46-C14=1.0901       H47-C15=1.1040       H48-C15=1.0914       H49-C17=1.1047       H50-C17=1.0921       
H51-C18=1.0910       H52-C18=1.1008       H53-C21=1.0779       H54-C22=1.0791       H55-C23=1.0773       H56-C28=1.0877       
H57-C28=1.1017       H58-C29=1.0907       H59-C29=1.1049       H60-C30=1.0790       H61-C31=1.0795       H62-C34=1.0775       
 C  H  Rav=1.0882 sigma=0.0098  Rmin=1.0704  Rmax=1.1049    28
 C  C  Rav=1.4203 sigma=0.0560  Rmin=1.3595  Rmax=1.5296    23
 N  C  Rav=1.4014 sigma=0.0482  Rmin=1.3161  Rmax=1.4524    11
 O  C  Rav=1.3866 sigma=0.0248  Rmin=1.3618  Rmax=1.4114     2
 Cl C  Rav=1.7277 sigma=0.0011  Rmin=1.7266  Rmax=1.7289     2
 
 selected bond angles (degree)
 --------------------
H35-C1-C2=110.34               H36-C1-C2=110.30               H36-C1-H35=107.72              H37-C1-C2=110.88               
H37-C1-H35=108.76              H37-C1-H36=108.75              C3-C2-C1=119.01                C34-C2-C1=121.95               
C34-C2-C3=119.03               C4-C3-C2=121.09                H38-C3-C2=119.38               H38-C3-C4=119.54               
N5-C4-C3=119.54                H39-C4-C3=123.33               H39-C4-N5=117.12               C6-N5-C4=131.99                
C33-N5-C4=121.64               C33-N5-C6=106.37               C7-C6-N5=106.36                H40-C6-N5=121.89               
H40-C6-C7=131.75               C8-C7-C6=128.60                N32-C7-C6=110.07               N32-C7-C8=121.32               
C9-C8-C7=119.66                C31-C8-C7=121.94               C31-C8-C9=118.39               C10-C9-C8=120.78               
H41-C9-C8=118.21               H41-C9-C10=121.01              C11-C10-C9=120.56              H42-C10-C9=121.21              
H42-C10-C11=118.22             
 
 selected dihedral angles (degree)
 ---------------------------------
C3-C2-C1-H35= 59.49           C3-C2-C1-H36=300.59           C3-C2-C1-H37=180.05           C34-C2-C1-H35=239.42          
C34-C2-C1-H36=120.52          C34-C2-C1-H37=  0.00          C4-C3-C2-C1=179.89            C4-C3-C2-C34=359.95           
H38-C3-C2-C1=359.92           H38-C3-C2-C34=179.99          N5-C4-C3-C2=359.94            N5-C4-C3-H38=179.91           
H39-C4-C3-C2=180.02           H39-C4-C3-H38=  0.00          C6-N5-C4-C3=180.37            C6-N5-C4-H39=  0.30           
C33-N5-C4-C3=  0.07           C33-N5-C4-H39=180.00          C7-C6-N5-C4=179.71            C7-C6-N5-C33=359.98           
H40-C6-N5-C4=359.65           H40-C6-N5-C33=179.91          C8-C7-C6-N5=180.55            C8-C7-C6-H40=  0.62           
N32-C7-C6-N5=  0.07           N32-C7-C6-H40=180.13          C9-C8-C7-C6=180.30            C9-C8-C7-N32=  0.84           
C31-C8-C7-C6=  0.67           C31-C8-C7-N32=181.20          C10-C9-C8-C7=180.64           C10-C9-C8-C31=  0.29          
H41-C9-C8-C7=  0.46           H41-C9-C8-C31=180.11          C11-C10-C9-C8=  0.05          C11-C10-C9-H41=180.24         
H42-C10-C9-C8=179.93          H42-C10-C9-H41=  0.11         

========================================================================
 FINAL SINGLEPOINT CALCULATION ON OPTIMIZED GEOMETRY
========================================================================

          ...................................................
          :                      SETUP                      :
          :.................................................:
          :  # basis functions                 176          :
          :  # atomic orbitals                 174          :
          :  # shells                           98          :
          :  # electrons                       176          :
          :  max. iterations                    50          :
          :  Hamiltonian                  GFN2-xTB          :
          :  restarted?                      false          :
          :  GBSA solvation                  false          :
          :  PC potential                    false          :
          :  electronic temp.          300.0000000     K    :
          :  accuracy                    1.0000000          :
          :  -> integral cutoff          0.2500000E+02      :
          :  -> integral neglect         0.1000000E-07      :
          :  -> SCF convergence          0.1000000E-05 Eh   :
          :  -> wf. convergence          0.1000000E-03 e    :
          :  Broyden damping             0.4000000          :
          ...................................................

 iter      E             dE          RMSdq      gap      omega  full diag
   1    -98.3804191 -0.983804E+02  0.106E-04    2.76       0.0  T
   2    -98.3804191 -0.122810E-09  0.845E-05    2.76     150.4  T
   3    -98.3804191 -0.880078E-10  0.738E-05    2.76     172.0  T

   *** convergence criteria satisfied after 3 iterations ***

         #    Occupation            Energy/Eh            Energy/eV
      -------------------------------------------------------------
         1        2.0000           -1.0549536             -28.7067
       ...           ...                  ...                  ...
        82        2.0000           -0.3980508             -10.8315
        83        2.0000           -0.3932170             -10.7000
        84        2.0000           -0.3724123             -10.1339
        85        2.0000           -0.3695334             -10.0555
        86        2.0000           -0.3627654              -9.8714
        87        2.0000           -0.3590369              -9.7699
        88        2.0000           -0.3545778              -9.6486 (HOMO)
        89                         -0.2532135              -6.8903 (LUMO)
        90                         -0.2407865              -6.5521
        91                         -0.2350335              -6.3956
        92                         -0.2236048              -6.0846
        93                         -0.2152262              -5.8566
       ...                                ...                  ...
       174                          0.7077458              19.2587
      -------------------------------------------------------------
                  HL-Gap            0.1013643 Eh            2.7583 eV
             Fermi-level           -0.3038957 Eh           -8.2694 eV

 SCC (total)                   0 d,  0 h,  0 min,  0.241 sec
 SCC setup                      ...        0 min,  0.006 sec (  2.660%)
 Dispersion                     ...        0 min,  0.002 sec (  0.623%)
 integral evaluation            ...        0 min,  0.027 sec ( 11.107%)
 zeroth order Hamiltonian       ...        0 min,  0.000 sec (  0.201%)
 iterations                     ...        0 min,  0.155 sec ( 64.323%)
 molecular gradient             ...        0 min,  0.048 sec ( 19.788%)
 printout                       ...        0 min,  0.003 sec (  1.262%)

         :::::::::::::::::::::::::::::::::::::::::::::::::::::
         ::                     SUMMARY                     ::
         :::::::::::::::::::::::::::::::::::::::::::::::::::::
         :: total energy              -97.010912981317 Eh   ::
         :: gradient norm               0.000389700437 Eh/α ::
         :: HOMO-LUMO gap               2.758262050347 eV   ::
         ::.................................................::
         :: SCC energy                -98.380419131067 Eh   ::
         :: -> isotropic ES             0.046032466940 Eh   ::
         :: -> anisotropic ES           0.010596884618 Eh   ::
         :: -> anisotropic XC           0.048550512582 Eh   ::
         :: -> dispersion              -0.070391223107 Eh   ::
         :: repulsion energy            1.370278201028 Eh   ::
         :: add. restraining            0.000000000000 Eh   ::
         :::::::::::::::::::::::::::::::::::::::::::::::::::::

           -------------------------------------------------
          |                Property Printout                |
           -------------------------------------------------

    * Orbital Energies and Occupations

         #    Occupation            Energy/Eh            Energy/eV
      -------------------------------------------------------------
         1        2.0000           -1.0549536             -28.7067
       ...           ...                  ...                  ...
        76        2.0000           -0.4279812             -11.6460
        77        2.0000           -0.4173365             -11.3563
        78        2.0000           -0.4153741             -11.3029
        79        2.0000           -0.4121699             -11.2157
        80        2.0000           -0.4118280             -11.2064
        81        2.0000           -0.4033993             -10.9771
        82        2.0000           -0.3980508             -10.8315
        83        2.0000           -0.3932170             -10.7000
        84        2.0000           -0.3724123             -10.1339
        85        2.0000           -0.3695334             -10.0555
        86        2.0000           -0.3627654              -9.8714
        87        2.0000           -0.3590369              -9.7699
        88        2.0000           -0.3545778              -9.6486 (HOMO)
        89                         -0.2532135              -6.8903 (LUMO)
        90                         -0.2407865              -6.5521
        91                         -0.2350335              -6.3956
        92                         -0.2236048              -6.0846
        93                         -0.2152262              -5.8566
        94                         -0.2083598              -5.6698
        95                         -0.1501057              -4.0846
        96                         -0.1389968              -3.7823
        97                         -0.1303216              -3.5462
        98                         -0.1155572              -3.1445
        99                         -0.1029394              -2.8011
       ...                                ...                  ...
       174                          0.7077458              19.2587
      -------------------------------------------------------------
                  HL-Gap            0.1013643 Eh            2.7583 eV
             Fermi-level           -0.3038957 Eh           -8.2694 eV

   #   Z        covCN         q      C6AA      α(0)
   1   6 C      3.758    -0.111    22.674     6.789
   2   6 C      2.967     0.017    27.637     8.623
   3   6 C      2.920    -0.055    29.359     8.885
   4   6 C      2.851     0.005    27.908     8.658
   5   7 N      2.855     0.016    20.964     6.800
   6   6 C      3.004    -0.045    29.099     8.849
   7   6 C      3.182     0.070    26.023     8.326
   8   6 C      2.972    -0.002    28.069     8.690
   9   6 C      2.926    -0.029    28.728     8.790
  10   6 C      2.919    -0.054    29.346     8.883
  11   6 C      2.865     0.142    24.911     8.181
  12   8 O      1.706    -0.275    18.561     5.817
  13   6 C      3.694     0.085    19.337     6.291
  14   6 C      3.802    -0.069    21.822     6.651
  15   6 C      3.758     0.008    20.498     6.455
  16   7 N      2.731    -0.178    24.856     7.405
  17   6 C      3.773     0.008    20.468     6.447
  18   6 C      3.764    -0.000    20.622     6.473
  19   7 N      2.742    -0.108    23.354     7.177
  20   6 C      2.937     0.059    26.677     8.471
  21   6 C      2.924    -0.062    29.552     8.915
  22   6 C      2.919    -0.033    28.820     8.803
  23   6 C      2.957    -0.053    29.324     8.882
  24   6 C      2.926     0.087    26.069     8.373
  25  17 Cl     1.008    -0.156   104.059    15.606
  26   6 C      2.924     0.062    26.606     8.459
  27  17 Cl     1.001    -0.155   104.003    15.602
  28   6 C      3.765     0.000    20.616     6.472
  29   6 C      3.774     0.008    20.471     6.447
  30   6 C      2.916    -0.068    29.700     8.937
  31   6 C      2.925    -0.038    28.955     8.824
  32   7 N      1.898    -0.301    28.653     7.936
  33   6 C      3.189     0.125    24.819     8.127
  34   6 C      2.913    -0.059    29.474     8.902
  35   1 H      0.925     0.050     2.326     2.385
  36   1 H      0.925     0.050     2.326     2.385
  37   1 H      0.925     0.047     2.363     2.404
  38   1 H      0.926     0.043     2.414     2.430
  39   1 H      0.926     0.042     2.418     2.432
  40   1 H      0.926     0.026     2.642     2.542
  41   1 H      0.926     0.064     2.152     2.294
  42   1 H      0.926     0.047     2.362     2.404
  43   1 H      0.923     0.030     2.590     2.517
  44   1 H      0.923     0.028     2.612     2.527
  45   1 H      0.925     0.063     2.168     2.303
  46   1 H      0.925     0.042     2.420     2.433
  47   1 H      0.923     0.012     2.861     2.645
  48   1 H      0.924     0.051     2.307     2.375
  49   1 H      0.922     0.020     2.736     2.587
  50   1 H      0.924     0.041     2.440     2.443
  51   1 H      0.924     0.046     2.371     2.408
  52   1 H      0.923     0.035     2.523     2.484
  53   1 H      0.926     0.049     2.335     2.390
  54   1 H      0.926     0.051     2.301     2.372
  55   1 H      0.926     0.062     2.176     2.307
  56   1 H      0.925     0.057     2.230     2.335
  57   1 H      0.923     0.033     2.545     2.495
  58   1 H      0.924     0.039     2.463     2.454
  59   1 H      0.922     0.023     2.695     2.567
  60   1 H      0.926     0.029     2.604     2.523
  61   1 H      0.926     0.030     2.584     2.514
  62   1 H      0.926     0.054     2.267     2.355

 Mol. C6AA /au·bohr⁶  :      50507.745361
 Mol. C8AA /au·bohr⁸  :    1278154.228976
 Mol. α(0) /au        :        351.256361


Wiberg/Mayer (AO) data.
largest (>0.10) Wiberg bond orders for each atom
          total WBO             WBO to atom ...
     1  C   3.995        C    2 1.028    H   37 0.985    H   35 0.971    H   36 0.971
     2  C   3.985        C   34 1.539    C    3 1.261    C    1 1.028
     3  C   3.981        C    4 1.587    C    2 1.261    H   38 0.969
     4  C   3.959        C    3 1.587    N    5 1.201    H   39 0.964    C   34 0.104
     5  N   3.701        C    6 1.210    C    4 1.201    C   33 1.074
     6  C   3.920        C    7 1.441    N    5 1.210    H   40 0.969
     7  C   3.977        C    6 1.441    N   32 1.291    C    8 1.082
     8  C   3.989        C   31 1.385    C    9 1.352    C    7 1.082
     9  C   3.983        C   10 1.492    C    8 1.352    H   41 0.965
    10  C   3.987        C    9 1.492    C   11 1.338    H   42 0.968    C   31 0.102
    11  C   3.925        C   30 1.369    C   10 1.338    O   12 1.060
    12  O   2.223        C   11 1.060    C   13 0.971
    13  C   3.951        C   14 1.002    O   12 0.971    H   43 0.967    H   44 0.966
    14  C   3.994        C   13 1.002    C   15 1.002    H   45 0.975    H   46 0.971
    15  C   3.985        C   14 1.002    N   16 1.001    H   48 0.971    H   47 0.965
    16  N   3.122        C   17 1.006    C   29 1.005    C   15 1.001
    17  C   3.987        N   16 1.006    C   18 0.996    H   50 0.971    H   49 0.963
    18  C   3.982        N   19 0.998    C   17 0.996    H   51 0.972    H   52 0.963
    19  N   3.336        C   20 1.131    C   18 0.998    C   28 0.982
    20  C   3.977        C   21 1.346    C   26 1.311    N   19 1.131
    21  C   3.986        C   22 1.452    C   20 1.346    H   53 0.965
    22  C   3.991        C   21 1.452    C   23 1.427    H   54 0.968
    23  C   3.980        C   22 1.427    C   24 1.386    H   55 0.967
    24  C   3.921        C   26 1.390    C   23 1.386    Cl  25 0.984
    25  Cl  1.125        C   24 0.984
    26  C   3.914        C   24 1.390    C   20 1.311    Cl  27 0.978
    27  Cl  1.132        C   26 0.978
    28  C   3.978        C   29 1.001    N   19 0.982    H   56 0.967    H   57 0.963
    29  C   3.988        N   16 1.005    C   28 1.001    H   58 0.969    H   59 0.961
    30  C   3.987        C   31 1.451    C   11 1.369    H   60 0.966
    31  C   3.983        C   30 1.451    C    8 1.385    H   61 0.969    C   10 0.102
    32  N   3.008        C   33 1.430    C    7 1.291
    33  C   3.952        N   32 1.430    C   34 1.259    N    5 1.074
    34  C   3.983        C    2 1.539    C   33 1.259    H   62 0.964    C    4 0.104
    35  H   0.994        C    1 0.971
    36  H   0.994        C    1 0.971
    37  H   0.997        C    1 0.985
    38  H   0.998        C    3 0.969
    39  H   0.998        C    4 0.964
    40  H   0.999        C    6 0.969
    41  H   0.995        C    9 0.965
    42  H   0.997        C   10 0.968
    43  H   0.998        C   13 0.967
    44  H   0.999        C   13 0.966
    45  H   0.996        C   14 0.975
    46  H   0.998        C   14 0.971
    47  H   1.000        C   15 0.965
    48  H   0.997        C   15 0.971
    49  H   1.000        C   17 0.963
    50  H   0.998        C   17 0.971
    51  H   0.998        C   18 0.972
    52  H   0.997        C   18 0.963
    53  H   0.997        C   21 0.965
    54  H   0.996        C   22 0.968
    55  H   0.996        C   23 0.967
    56  H   0.996        C   28 0.967
    57  H   0.997        C   28 0.963
    58  H   0.998        C   29 0.969
    59  H   0.999        C   29 0.961
    60  H   0.999        C   30 0.966
    61  H   0.999        C   31 0.969
    62  H   0.997        C   34 0.964

molecular dipole:
                 x           y           z       tot (Debye)
 q only:       -1.395      -0.609      -0.802
   full:       -1.605       0.312      -0.456       4.314
molecular quadrupole (traceless):
                xx          xy          yy          xz          yz          zz
 q only:        7.599     -31.545       1.609     -31.484      -7.859      -9.208
  q+dip:       15.348     -37.396       2.274     -27.009      -5.258     -17.622
   full:       13.799     -36.375      -0.313     -26.196      -6.057     -13.487

           -------------------------------------------------
          |                Geometry Summary                 |
           -------------------------------------------------

      molecular mass/u    :      495.4504000
   center of mass at/Å    :        0.9557122       0.2471655       0.2560545
  moments of inertia/u·Å² :        0.1176801E+04   0.2602467E+05   0.2621460E+05
rotational constants/cm⁻¹ :        0.1432496E-01   0.6477558E-03   0.6430627E-03

 * 66 selected distances

     #   Z        #   Z                                     value/Å
     1   6 C      2   6 C                                 1.4964990
     2   6 C      3   6 C                                 1.4175867
     3   6 C      4   6 C                                 1.3595385
     4   6 C      5   7 N                                 1.3524793
     5   7 N      6   6 C                                 1.3571644
     6   6 C      7   6 C                                 1.3859959
     7   6 C      8   6 C                                 1.4515250
     8   6 C      9   6 C                                 1.3970710
     9   6 C     10   6 C                                 1.3749002
    10   6 C     11   6 C                                 1.3973816
    11   6 C     12   8 O                                 1.3618278
    12   8 O     13   6 C                                 1.4113685
    13   6 C     14   6 C                                 1.5245652
    14   6 C     15   6 C                                 1.5293315
    15   6 C     16   7 N                                 1.4524064
    16   7 N     17   6 C                                 1.4502726
    17   6 C     18   6 C                                 1.5295760
    18   6 C     19   7 N                                 1.4457024
    19   7 N     20   6 C                                 1.3838352
    20   6 C     21   6 C                                 1.3994965
    21   6 C     22   6 C                                 1.3804928
    22   6 C     23   6 C                                 1.3825829
    23   6 C     24   6 C                                 1.3861295
    24   6 C     25  17 Cl                                1.7266193
    20   6 C     26   6 C                                 1.4064637
    24   6 C     26   6 C                                 1.3874424
    26   6 C     27  17 Cl                                1.7288554 (max)
    19   7 N     28   6 C                                 1.4496585
    16   7 N     29   6 C                                 1.4514110
    28   6 C     29   6 C                                 1.5240475
    11   6 C     30   6 C                                 1.3911393
     8   6 C     31   6 C                                 1.3911357
    30   6 C     31   6 C                                 1.3828982
     7   6 C     32   7 N                                 1.3582982
     5   7 N     33   6 C                                 1.3982816
    32   7 N     33   6 C                                 1.3160855
     2   6 C     34   6 C                                 1.3693516
    33   6 C     34   6 C                                 1.4023650
     1   6 C     35   1 H                                 1.0895330
     1   6 C     36   1 H                                 1.0895651
     1   6 C     37   1 H                                 1.0863700
     3   6 C     38   1 H                                 1.0783821
     4   6 C     39   1 H                                 1.0800527
     6   6 C     40   1 H                                 1.0703885 (min)
     9   6 C     41   1 H                                 1.0782739
    10   6 C     42   1 H                                 1.0788520
    13   6 C     43   1 H                                 1.0993347
    13   6 C     44   1 H                                 1.0996777
    14   6 C     45   1 H                                 1.0896138
    14   6 C     46   1 H                                 1.0900932
    15   6 C     47   1 H                                 1.1040088
    15   6 C     48   1 H                                 1.0914218
    17   6 C     49   1 H                                 1.1047444
    17   6 C     50   1 H                                 1.0920926
    18   6 C     51   1 H                                 1.0910004
    18   6 C     52   1 H                                 1.1008226
    21   6 C     53   1 H                                 1.0779283
    22   6 C     54   1 H                                 1.0791079
    23   6 C     55   1 H                                 1.0772807
    28   6 C     56   1 H                                 1.0876781
    28   6 C     57   1 H                                 1.1016904
    29   6 C     58   1 H                                 1.0907035
    29   6 C     59   1 H                                 1.1048731
    30   6 C     60   1 H                                 1.0789705
    31   6 C     61   1 H                                 1.0794668
    34   6 C     62   1 H                                 1.0775235

 * 5 distinct bonds (by element types)

   Z      Z             #   av. dist./Å        max./Å        min./Å
   1 H    6 C          28     1.0881947     1.1048731     1.0703885
   6 C    6 C          23     1.4203268     1.5295760     1.3595385
   6 C    7 N          11     1.4014177     1.4524064     1.3160855
   6 C    8 O           2     1.3865982     1.4113685     1.3618278
   6 C   17 Cl          2     1.7277374     1.7288554     1.7266193


optimized geometry written to: xtbopt.sdf


           -------------------------------------------------
          | TOTAL ENERGY              -97.010912981317 Eh   |
          | GRADIENT NORM               0.000389700437 Eh/α |
          | HOMO-LUMO GAP               2.758262050347 eV   |
           -------------------------------------------------

########################################################################
# WARNING! Some non-fatal runtime exceptions were caught, please check:
#  - Number of electron missmatch in restart file.
#  - Dimension missmatch in restart file.
########################################################################


------------------------------------------------------------------------
 * finished run on 2020/02/02 at 20:20:27.846     
------------------------------------------------------------------------
 total:
 * wall-time:     0 d,  0 h,  0 min, 14.617 sec
 *  cpu-time:     0 d,  0 h,  1 min, 55.486 sec
 * ratio c/w:     7.901 speedup
 SCF:
 * wall-time:     0 d,  0 h,  0 min,  1.139 sec
 *  cpu-time:     0 d,  0 h,  0 min,  7.060 sec
 * ratio c/w:     6.196 speedup
 ANC optimizer:
 * wall-time:     0 d,  0 h,  0 min, 13.190 sec
 *  cpu-time:     0 d,  0 h,  1 min, 46.884 sec
 * ratio c/w:     8.103 speedup

normal termination of xtb
